<?xml version="1.0"?> 
<VTKFile type="UnstructuredGrid"> 
   <UnstructuredGrid> 
      <Piece NumberOfPoints="6000"  NumberOfCells="1500">  
          <Points>  
             <DataArray type="Float64" NumberOfComponents="3" format="ascii">   
-500.0   0.0   0.0
-450.0   0.0   0.0
-500.0   30.0   0.0
-500.0   0.0   16.666666666666668
-450.0   0.0   0.0
-450.0   30.0   0.0
-500.0   30.0   0.0
-450.0   30.0   16.666666666666668
-500.0   0.0   16.666666666666668
-500.0   30.0   16.666666666666668
-450.0   30.0   16.666666666666668
-500.0   30.0   0.0
-500.0   0.0   16.666666666666668
-450.0   30.0   16.666666666666668
-450.0   0.0   16.666666666666668
-450.0   0.0   0.0
-500.0   0.0   16.666666666666668
-450.0   30.0   16.666666666666668
-450.0   0.0   0.0
-500.0   30.0   0.0
-500.0   0.0   16.666666666666668
-450.0   0.0   16.666666666666668
-500.0   30.0   16.666666666666668
-500.0   0.0   33.333333333333336
-450.0   0.0   16.666666666666668
-450.0   30.0   16.666666666666668
-500.0   30.0   16.666666666666668
-450.0   30.0   33.333333333333336
-500.0   0.0   33.333333333333336
-500.0   30.0   33.333333333333336
-450.0   30.0   33.333333333333336
-500.0   30.0   16.666666666666668
-500.0   0.0   33.333333333333336
-450.0   30.0   33.333333333333336
-450.0   0.0   33.333333333333336
-450.0   0.0   16.666666666666668
-500.0   0.0   33.333333333333336
-450.0   30.0   33.333333333333336
-450.0   0.0   16.666666666666668
-500.0   30.0   16.666666666666668
-500.0   0.0   33.333333333333336
-450.0   0.0   33.333333333333336
-500.0   30.0   33.333333333333336
-500.0   0.0   50.0
-450.0   0.0   33.333333333333336
-450.0   30.0   33.333333333333336
-500.0   30.0   33.333333333333336
-450.0   30.0   50.0
-500.0   0.0   50.0
-500.0   30.0   50.0
-450.0   30.0   50.0
-500.0   30.0   33.333333333333336
-500.0   0.0   50.0
-450.0   30.0   50.0
-450.0   0.0   50.0
-450.0   0.0   33.333333333333336
-500.0   0.0   50.0
-450.0   30.0   50.0
-450.0   0.0   33.333333333333336
-500.0   30.0   33.333333333333336
-500.0   30.0   0.0
-450.0   30.0   0.0
-500.0   60.0   0.0
-500.0   30.0   16.666666666666668
-450.0   30.0   0.0
-450.0   60.0   0.0
-500.0   60.0   0.0
-450.0   60.0   16.666666666666668
-500.0   30.0   16.666666666666668
-500.0   60.0   16.666666666666668
-450.0   60.0   16.666666666666668
-500.0   60.0   0.0
-500.0   30.0   16.666666666666668
-450.0   60.0   16.666666666666668
-450.0   30.0   16.666666666666668
-450.0   30.0   0.0
-500.0   30.0   16.666666666666668
-450.0   60.0   16.666666666666668
-450.0   30.0   0.0
-500.0   60.0   0.0
-500.0   30.0   16.666666666666668
-450.0   30.0   16.666666666666668
-500.0   60.0   16.666666666666668
-500.0   30.0   33.333333333333336
-450.0   30.0   16.666666666666668
-450.0   60.0   16.666666666666668
-500.0   60.0   16.666666666666668
-450.0   60.0   33.333333333333336
-500.0   30.0   33.333333333333336
-500.0   60.0   33.333333333333336
-450.0   60.0   33.333333333333336
-500.0   60.0   16.666666666666668
-500.0   30.0   33.333333333333336
-450.0   60.0   33.333333333333336
-450.0   30.0   33.333333333333336
-450.0   30.0   16.666666666666668
-500.0   30.0   33.333333333333336
-450.0   60.0   33.333333333333336
-450.0   30.0   16.666666666666668
-500.0   60.0   16.666666666666668
-500.0   30.0   33.333333333333336
-450.0   30.0   33.333333333333336
-500.0   60.0   33.333333333333336
-500.0   30.0   50.0
-450.0   30.0   33.333333333333336
-450.0   60.0   33.333333333333336
-500.0   60.0   33.333333333333336
-450.0   60.0   50.0
-500.0   30.0   50.0
-500.0   60.0   50.0
-450.0   60.0   50.0
-500.0   60.0   33.333333333333336
-500.0   30.0   50.0
-450.0   60.0   50.0
-450.0   30.0   50.0
-450.0   30.0   33.333333333333336
-500.0   30.0   50.0
-450.0   60.0   50.0
-450.0   30.0   33.333333333333336
-500.0   60.0   33.333333333333336
-500.0   60.0   0.0
-450.0   60.0   0.0
-500.0   90.0   0.0
-500.0   60.0   16.666666666666668
-450.0   60.0   0.0
-450.0   90.0   0.0
-500.0   90.0   0.0
-450.0   90.0   16.666666666666668
-500.0   60.0   16.666666666666668
-500.0   90.0   16.666666666666668
-450.0   90.0   16.666666666666668
-500.0   90.0   0.0
-500.0   60.0   16.666666666666668
-450.0   90.0   16.666666666666668
-450.0   60.0   16.666666666666668
-450.0   60.0   0.0
-500.0   60.0   16.666666666666668
-450.0   90.0   16.666666666666668
-450.0   60.0   0.0
-500.0   90.0   0.0
-500.0   60.0   16.666666666666668
-450.0   60.0   16.666666666666668
-500.0   90.0   16.666666666666668
-500.0   60.0   33.333333333333336
-450.0   60.0   16.666666666666668
-450.0   90.0   16.666666666666668
-500.0   90.0   16.666666666666668
-450.0   90.0   33.333333333333336
-500.0   60.0   33.333333333333336
-500.0   90.0   33.333333333333336
-450.0   90.0   33.333333333333336
-500.0   90.0   16.666666666666668
-500.0   60.0   33.333333333333336
-450.0   90.0   33.333333333333336
-450.0   60.0   33.333333333333336
-450.0   60.0   16.666666666666668
-500.0   60.0   33.333333333333336
-450.0   90.0   33.333333333333336
-450.0   60.0   16.666666666666668
-500.0   90.0   16.666666666666668
-500.0   60.0   33.333333333333336
-450.0   60.0   33.333333333333336
-500.0   90.0   33.333333333333336
-500.0   60.0   50.0
-450.0   60.0   33.333333333333336
-450.0   90.0   33.333333333333336
-500.0   90.0   33.333333333333336
-450.0   90.0   50.0
-500.0   60.0   50.0
-500.0   90.0   50.0
-450.0   90.0   50.0
-500.0   90.0   33.333333333333336
-500.0   60.0   50.0
-450.0   90.0   50.0
-450.0   60.0   50.0
-450.0   60.0   33.333333333333336
-500.0   60.0   50.0
-450.0   90.0   50.0
-450.0   60.0   33.333333333333336
-500.0   90.0   33.333333333333336
-500.0   90.0   0.0
-450.0   90.0   0.0
-500.0   120.0   0.0
-500.0   90.0   16.666666666666668
-450.0   90.0   0.0
-450.0   120.0   0.0
-500.0   120.0   0.0
-450.0   120.0   16.666666666666668
-500.0   90.0   16.666666666666668
-500.0   120.0   16.666666666666668
-450.0   120.0   16.666666666666668
-500.0   120.0   0.0
-500.0   90.0   16.666666666666668
-450.0   120.0   16.666666666666668
-450.0   90.0   16.666666666666668
-450.0   90.0   0.0
-500.0   90.0   16.666666666666668
-450.0   120.0   16.666666666666668
-450.0   90.0   0.0
-500.0   120.0   0.0
-500.0   90.0   16.666666666666668
-450.0   90.0   16.666666666666668
-500.0   120.0   16.666666666666668
-500.0   90.0   33.333333333333336
-450.0   90.0   16.666666666666668
-450.0   120.0   16.666666666666668
-500.0   120.0   16.666666666666668
-450.0   120.0   33.333333333333336
-500.0   90.0   33.333333333333336
-500.0   120.0   33.333333333333336
-450.0   120.0   33.333333333333336
-500.0   120.0   16.666666666666668
-500.0   90.0   33.333333333333336
-450.0   120.0   33.333333333333336
-450.0   90.0   33.333333333333336
-450.0   90.0   16.666666666666668
-500.0   90.0   33.333333333333336
-450.0   120.0   33.333333333333336
-450.0   90.0   16.666666666666668
-500.0   120.0   16.666666666666668
-500.0   90.0   33.333333333333336
-450.0   90.0   33.333333333333336
-500.0   120.0   33.333333333333336
-500.0   90.0   50.0
-450.0   90.0   33.333333333333336
-450.0   120.0   33.333333333333336
-500.0   120.0   33.333333333333336
-450.0   120.0   50.0
-500.0   90.0   50.0
-500.0   120.0   50.0
-450.0   120.0   50.0
-500.0   120.0   33.333333333333336
-500.0   90.0   50.0
-450.0   120.0   50.0
-450.0   90.0   50.0
-450.0   90.0   33.333333333333336
-500.0   90.0   50.0
-450.0   120.0   50.0
-450.0   90.0   33.333333333333336
-500.0   120.0   33.333333333333336
-500.0   120.0   0.0
-450.0   120.0   0.0
-500.0   150.0   0.0
-500.0   120.0   16.666666666666668
-450.0   120.0   0.0
-450.0   150.0   0.0
-500.0   150.0   0.0
-450.0   150.0   16.666666666666668
-500.0   120.0   16.666666666666668
-500.0   150.0   16.666666666666668
-450.0   150.0   16.666666666666668
-500.0   150.0   0.0
-500.0   120.0   16.666666666666668
-450.0   150.0   16.666666666666668
-450.0   120.0   16.666666666666668
-450.0   120.0   0.0
-500.0   120.0   16.666666666666668
-450.0   150.0   16.666666666666668
-450.0   120.0   0.0
-500.0   150.0   0.0
-500.0   120.0   16.666666666666668
-450.0   120.0   16.666666666666668
-500.0   150.0   16.666666666666668
-500.0   120.0   33.333333333333336
-450.0   120.0   16.666666666666668
-450.0   150.0   16.666666666666668
-500.0   150.0   16.666666666666668
-450.0   150.0   33.333333333333336
-500.0   120.0   33.333333333333336
-500.0   150.0   33.333333333333336
-450.0   150.0   33.333333333333336
-500.0   150.0   16.666666666666668
-500.0   120.0   33.333333333333336
-450.0   150.0   33.333333333333336
-450.0   120.0   33.333333333333336
-450.0   120.0   16.666666666666668
-500.0   120.0   33.333333333333336
-450.0   150.0   33.333333333333336
-450.0   120.0   16.666666666666668
-500.0   150.0   16.666666666666668
-500.0   120.0   33.333333333333336
-450.0   120.0   33.333333333333336
-500.0   150.0   33.333333333333336
-500.0   120.0   50.0
-450.0   120.0   33.333333333333336
-450.0   150.0   33.333333333333336
-500.0   150.0   33.333333333333336
-450.0   150.0   50.0
-500.0   120.0   50.0
-500.0   150.0   50.0
-450.0   150.0   50.0
-500.0   150.0   33.333333333333336
-500.0   120.0   50.0
-450.0   150.0   50.0
-450.0   120.0   50.0
-450.0   120.0   33.333333333333336
-500.0   120.0   50.0
-450.0   150.0   50.0
-450.0   120.0   33.333333333333336
-500.0   150.0   33.333333333333336
-450.0   0.0   0.0
-400.0   0.0   0.0
-450.0   30.0   0.0
-450.0   0.0   16.666666666666668
-400.0   0.0   0.0
-400.0   30.0   0.0
-450.0   30.0   0.0
-400.0   30.0   16.666666666666668
-450.0   0.0   16.666666666666668
-450.0   30.0   16.666666666666668
-400.0   30.0   16.666666666666668
-450.0   30.0   0.0
-450.0   0.0   16.666666666666668
-400.0   30.0   16.666666666666668
-400.0   0.0   16.666666666666668
-400.0   0.0   0.0
-450.0   0.0   16.666666666666668
-400.0   30.0   16.666666666666668
-400.0   0.0   0.0
-450.0   30.0   0.0
-450.0   0.0   16.666666666666668
-400.0   0.0   16.666666666666668
-450.0   30.0   16.666666666666668
[...]
          <PointData>  
             <DataArray type="Float64" NumberOfComponents="3" Name="Strains" format="ascii">   
-1.3011568811721079e-05   0.0   -8.765400633043579e-06
-1.3011568811721079e-05   0.0   -8.765400633043579e-06
-1.3011568811721079e-05   0.0   -8.765400633043579e-06
-1.3011568811721079e-05   0.0   -8.765400633043579e-06
-8.257168956740287e-06   1.4114596980913899e-06   5.474944112557917e-09
-8.257168956740287e-06   1.4114596980913899e-06   5.474944112557917e-09
-8.257168956740287e-06   1.4114596980913899e-06   5.474944112557917e-09
-8.257168956740287e-06   1.4114596980913899e-06   5.474944112557917e-09
-8.078434054844196e-06   0.0   -8.30255878515213e-06
-8.078434054844196e-06   0.0   -8.30255878515213e-06
-8.078434054844196e-06   0.0   -8.30255878515213e-06
-8.078434054844196e-06   0.0   -8.30255878515213e-06
-1.359813578505895e-05   1.7081239535861e-06   -1.2793027361249725e-07
-1.359813578505895e-05   1.7081239535861e-06   -1.2793027361249725e-07
-1.359813578505895e-05   1.7081239535861e-06   -1.2793027361249725e-07
-1.359813578505895e-05   1.7081239535861e-06   -1.2793027361249725e-07
-1.0545001433282619e-05   3.857015399095416e-07   -4.423034078367107e-06
-1.0545001433282619e-05   3.857015399095416e-07   -4.423034078367107e-06
-1.0545001433282619e-05   3.857015399095416e-07   -4.423034078367107e-06
-1.0545001433282619e-05   3.857015399095416e-07   -4.423034078367107e-06
-1.3598135785058974e-05   0.0   -9.32743315730379e-06
-1.3598135785058974e-05   0.0   -9.32743315730379e-06
-1.3598135785058974e-05   0.0   -9.32743315730379e-06
-1.3598135785058974e-05   0.0   -9.32743315730379e-06
-8.078434054844196e-06   1.7081239535861e-06   8.969440985391631e-07
-8.078434054844196e-06   1.7081239535861e-06   8.969440985391631e-07
-8.078434054844196e-06   1.7081239535861e-06   8.969440985391631e-07
-8.078434054844196e-06   1.7081239535861e-06   8.969440985391631e-07
-8.084526561204727e-06   0.0   -8.501283916858079e-06
-8.084526561204727e-06   0.0   -8.501283916858079e-06
-8.084526561204727e-06   0.0   -8.501283916858079e-06
-8.084526561204727e-06   0.0   -8.501283916858079e-06
-1.4002413926501294e-05   1.833892487224472e-06   2.6152619963488657e-07
-1.4002413926501294e-05   1.833892487224472e-06   2.6152619963488657e-07
-1.4002413926501294e-05   1.833892487224472e-06   2.6152619963488657e-07
-1.4002413926501294e-05   1.833892487224472e-06   2.6152619963488657e-07
-1.0841331173131832e-05   6.884577003714254e-07   -4.31968418386905e-06
-1.0841331173131832e-05   6.884577003714254e-07   -4.31968418386905e-06
-1.0841331173131832e-05   6.884577003714254e-07   -4.31968418386905e-06
-1.0841331173131832e-05   6.884577003714254e-07   -4.31968418386905e-06
-1.4002413926501318e-05   0.0   -9.601619409192764e-06
-1.4002413926501318e-05   0.0   -9.601619409192764e-06
-1.4002413926501318e-05   0.0   -9.601619409192764e-06
-1.4002413926501318e-05   0.0   -9.601619409192764e-06
-8.084526561204713e-06   1.833892487224472e-06   1.3618616919695695e-06
-8.084526561204713e-06   1.833892487224472e-06   1.3618616919695695e-06
-8.084526561204713e-06   1.833892487224472e-06   1.3618616919695695e-06
-8.084526561204713e-06   1.833892487224472e-06   1.3618616919695695e-06
-8.061462743176208e-06   0.0   -8.554980204904995e-06
-8.061462743176208e-06   0.0   -8.554980204904995e-06
-8.061462743176208e-06   0.0   -8.554980204904995e-06
-8.061462743176208e-06   0.0   -8.554980204904995e-06
-1.4889903526822483e-05   2.1013426913186145e-06   1.5649488197143294e-06
-1.4889903526822483e-05   2.1013426913186145e-06   1.5649488197143294e-06
-1.4889903526822483e-05   2.1013426913186145e-06   1.5649488197143294e-06
-1.4889903526822483e-05   2.1013426913186145e-06   1.5649488197143294e-06
-1.1031938334838744e-05   8.721993369064727e-07   -4.127507154277943e-06
-1.1031938334838744e-05   8.721993369064727e-07   -4.127507154277943e-06
-1.1031938334838744e-05   8.721993369064727e-07   -4.127507154277943e-06
-1.1031938334838744e-05   8.721993369064727e-07   -4.127507154277943e-06
-8.2571689567403e-06   0.0   -7.918524814188746e-06
-8.2571689567403e-06   0.0   -7.918524814188746e-06
-8.2571689567403e-06   0.0   -7.918524814188746e-06
-8.2571689567403e-06   0.0   -7.918524814188746e-06
-3.779660286466512e-06   5.118849063727862e-07   -1.4887941990876254e-07
-3.779660286466512e-06   5.118849063727862e-07   -1.4887941990876254e-07
-3.779660286466512e-06   5.118849063727862e-07   -1.4887941990876254e-07
-3.779660286466512e-06   5.118849063727862e-07   -1.4887941990876254e-07
-3.6189569733136987e-06   0.0   -7.859375196558098e-06
-3.6189569733136987e-06   0.0   -7.859375196558098e-06
-3.6189569733136987e-06   0.0   -7.859375196558098e-06
-3.6189569733136987e-06   0.0   -7.859375196558098e-06
-8.078434054844196e-06   7.386393143233609e-07   -8.700969826013136e-07
-8.078434054844196e-06   7.386393143233609e-07   -8.700969826013136e-07
-8.078434054844196e-06   7.386393143233609e-07   -8.700969826013136e-07
-8.078434054844196e-06   7.386393143233609e-07   -8.700969826013136e-07
-5.9380629650269926e-06   4.929134802552709e-08   -4.023773352517922e-06
-5.9380629650269926e-06   4.929134802552709e-08   -4.023773352517922e-06
-5.9380629650269926e-06   4.929134802552709e-08   -4.023773352517922e-06
-5.9380629650269926e-06   4.929134802552709e-08   -4.023773352517922e-06
-8.078434054844189e-06   0.0   -8.302558785152123e-06
-8.078434054844189e-06   0.0   -8.302558785152123e-06
-8.078434054844189e-06   0.0   -8.302558785152123e-06
-8.078434054844189e-06   0.0   -8.302558785152123e-06
-3.6189569733136987e-06   7.386393143233592e-07   -4.2691339400729314e-07
-3.6189569733136987e-06   7.386393143233592e-07   -4.2691339400729314e-07
-3.6189569733136987e-06   7.386393143233592e-07   -4.2691339400729314e-07
-3.6189569733136987e-06   7.386393143233592e-07   -4.2691339400729314e-07
-3.521878548586419e-06   0.0   -7.95458001864697e-06
-3.521878548586419e-06   0.0   -7.95458001864697e-06
-3.521878548586419e-06   0.0   -7.95458001864697e-06
-3.521878548586419e-06   0.0   -7.95458001864697e-06
-8.084526561204727e-06   9.111731636851582e-07   -8.968705624942441e-07
-8.084526561204727e-06   9.111731636851582e-07   -8.968705624942441e-07
-8.084526561204727e-06   9.111731636851582e-07   -8.968705624942441e-07
-8.084526561204727e-06   9.111731636851582e-07   -8.968705624942441e-07
-5.8001563017153e-06   2.899823054209553e-07   -4.331439813351399e-06
-5.8001563017153e-06   2.899823054209553e-07   -4.331439813351399e-06
-5.8001563017153e-06   2.899823054209553e-07   -4.331439813351399e-06
-5.8001563017153e-06   2.899823054209553e-07   -4.331439813351399e-06
-8.084526561204727e-06   0.0   -8.501283916858079e-06
-8.084526561204727e-06   0.0   -8.501283916858079e-06
-8.084526561204727e-06   0.0   -8.501283916858079e-06
-8.084526561204727e-06   0.0   -8.501283916858079e-06
-3.521878548586425e-06   9.111731636851582e-07   -3.5016666428314854e-07
-3.521878548586425e-06   9.111731636851582e-07   -3.5016666428314854e-07
-3.521878548586425e-06   9.111731636851582e-07   -3.5016666428314854e-07
-3.521878548586425e-06   9.111731636851582e-07   -3.5016666428314854e-07
-3.430723927042713e-06   0.0   -7.916451089396727e-06
-3.430723927042713e-06   0.0   -7.916451089396727e-06
-3.430723927042713e-06   0.0   -7.916451089396727e-06
-3.430723927042713e-06   0.0   -7.916451089396727e-06
-8.061462743176201e-06   1.0642151925137703e-06   -8.370821780158356e-07
-8.061462743176201e-06   1.0642151925137703e-06   -8.370821780158356e-07
-8.061462743176201e-06   1.0642151925137703e-06   -8.370821780158356e-07
-8.061462743176201e-06   1.0642151925137703e-06   -8.370821780158356e-07
-5.757625244123718e-06   4.873606895511218e-07   -4.3306986413257235e-06
-5.757625244123718e-06   4.873606895511218e-07   -4.3306986413257235e-06
-5.757625244123718e-06   4.873606895511218e-07   -4.3306986413257235e-06
-5.757625244123718e-06   4.873606895511218e-07   -4.3306986413257235e-06
-3.7796602864665188e-06   0.0   -7.611393870365073e-06
-3.7796602864665188e-06   0.0   -7.611393870365073e-06
-3.7796602864665188e-06   0.0   -7.611393870365073e-06
-3.7796602864665188e-06   0.0   -7.611393870365073e-06
4.364803614625518e-07   -6.993256020091824e-08   -6.264523266038328e-07
4.364803614625518e-07   -6.993256020091824e-08   -6.264523266038328e-07
4.364803614625518e-07   -6.993256020091824e-08   -6.264523266038328e-07
4.364803614625518e-07   -6.993256020091824e-08   -6.264523266038328e-07
5.467938193258953e-07   0.0   -7.779658742560857e-06
5.467938193258953e-07   0.0   -7.779658742560857e-06
5.467938193258953e-07   0.0   -7.779658742560857e-06
5.467938193258953e-07   0.0   -7.779658742560857e-06
-3.6189569733136987e-06   1.3286075666204897e-07   -9.164572088254406e-07
-3.6189569733136987e-06   1.3286075666204897e-07   -9.164572088254406e-07
-3.6189569733136987e-06   1.3286075666204897e-07   -9.164572088254406e-07
-3.6189569733136987e-06   1.3286075666204897e-07   -9.164572088254406e-07
-1.6164332335703078e-06   -1.4022072682984237e-07   -4.090147884969289e-06
-1.6164332335703078e-06   -1.4022072682984237e-07   -4.090147884969289e-06
-1.6164332335703078e-06   -1.4022072682984237e-07   -4.090147884969289e-06
-1.6164332335703078e-06   -1.4022072682984237e-07   -4.090147884969289e-06
-3.618956973313705e-06   0.0   -7.859375196558113e-06
-3.618956973313705e-06   0.0   -7.859375196558113e-06
-3.618956973313705e-06   0.0   -7.859375196558113e-06
-3.618956973313705e-06   0.0   -7.859375196558113e-06
5.467938193258963e-07   1.3286075666204897e-07   -8.367407548282127e-07
5.467938193258963e-07   1.3286075666204897e-07   -8.367407548282127e-07
5.467938193258963e-07   1.3286075666204897e-07   -8.367407548282127e-07
5.467938193258963e-07   1.3286075666204897e-07   -8.367407548282127e-07
6.360661970021397e-07   0.0   -7.767247078738422e-06
6.360661970021397e-07   0.0   -7.767247078738422e-06
6.360661970021397e-07   0.0   -7.767247078738422e-06
6.360661970021397e-07   0.0   -7.767247078738422e-06
-3.5218785485864126e-06   3.122215665142437e-07   -1.0246721093327036e-06
-3.5218785485864126e-06   3.122215665142437e-07   -1.0246721093327036e-06
-3.5218785485864126e-06   3.122215665142437e-07   -1.0246721093327036e-06
-3.5218785485864126e-06   3.122215665142437e-07   -1.0246721093327036e-06
-1.4914453881557794e-06   7.677343151639758e-08   -4.267458495718392e-06
-1.4914453881557794e-06   7.677343151639758e-08   -4.267458495718392e-06
-1.4914453881557794e-06   7.677343151639758e-08   -4.267458495718392e-06
-1.4914453881557794e-06   7.677343151639758e-08   -4.267458495718392e-06
-3.521878548586425e-06   0.0   -7.954580018646983e-06
-3.521878548586425e-06   0.0   -7.954580018646983e-06
-3.521878548586425e-06   0.0   -7.954580018646983e-06
-3.521878548586425e-06   0.0   -7.954580018646983e-06
6.360661970021409e-07   3.122215665142454e-07   -8.373391694241605e-07
6.360661970021409e-07   3.122215665142454e-07   -8.373391694241605e-07
6.360661970021409e-07   3.122215665142454e-07   -8.373391694241605e-07
6.360661970021409e-07   3.122215665142454e-07   -8.373391694241605e-07
7.506422246994775e-07   0.0   -7.605066232057431e-06
7.506422246994775e-07   0.0   -7.605066232057431e-06
7.506422246994775e-07   0.0   -7.605066232057431e-06
7.506422246994775e-07   0.0   -7.605066232057431e-06
-3.43072392704271e-06   5.189747622321456e-07   -9.475075031597399e-07
-3.43072392704271e-06   5.189747622321456e-07   -9.475075031597399e-07
-3.43072392704271e-06   5.189747622321456e-07   -9.475075031597399e-07
-3.43072392704271e-06   5.189747622321456e-07   -9.475075031597399e-07
-1.3856181619434707e-06   2.9126148882461466e-07   -4.219389147613951e-06
-1.3856181619434707e-06   2.9126148882461466e-07   -4.219389147613951e-06
-1.3856181619434707e-06   2.9126148882461466e-07   -4.219389147613951e-06
-1.3856181619434707e-06   2.9126148882461466e-07   -4.219389147613951e-06
4.364803614625526e-07   0.0   -7.653353406485624e-06
4.364803614625526e-07   0.0   -7.653353406485624e-06
4.364803614625526e-07   0.0   -7.653353406485624e-06
4.364803614625526e-07   0.0   -7.653353406485624e-06
5.027236771108176e-06   -5.897314647185536e-07   -3.559316025740456e-07
5.027236771108176e-06   -5.897314647185536e-07   -3.559316025740456e-07
5.027236771108176e-06   -5.897314647185536e-07   -3.559316025740456e-07
5.027236771108176e-06   -5.897314647185536e-07   -3.559316025740456e-07
5.057065175192133e-06   0.0   -8.043583758752816e-06
5.057065175192133e-06   0.0   -8.043583758752816e-06
5.057065175192133e-06   0.0   -8.043583758752816e-06
5.057065175192133e-06   0.0   -8.043583758752816e-06
5.467938193258972e-07   -4.398750269865533e-07   -2.6253981611715994e-07
5.467938193258972e-07   -4.398750269865533e-07   -2.6253981611715994e-07
5.467938193258972e-07   -4.398750269865533e-07   -2.6253981611715994e-07
5.467938193258972e-07   -4.398750269865533e-07   -2.6253981611715994e-07
2.7467727683273427e-06   -3.251919602226599e-07   -3.997981237844567e-06
2.7467727683273427e-06   -3.251919602226599e-07   -3.997981237844567e-06
2.7467727683273427e-06   -3.251919602226599e-07   -3.997981237844567e-06
2.7467727683273427e-06   -3.251919602226599e-07   -3.997981237844567e-06
5.467938193258972e-07   0.0   -7.779658742560884e-06
5.467938193258972e-07   0.0   -7.779658742560884e-06
5.467938193258972e-07   0.0   -7.779658742560884e-06
5.467938193258972e-07   0.0   -7.779658742560884e-06
5.057065175192133e-06   -4.398750269865533e-07   -5.264648323090911e-07
5.057065175192133e-06   -4.398750269865533e-07   -5.264648323090911e-07
5.057065175192133e-06   -4.398750269865533e-07   -5.264648323090911e-07
5.057065175192133e-06   -4.398750269865533e-07   -5.264648323090911e-07
5.053408354964043e-06   0.0   -7.928874072279791e-06
5.053408354964043e-06   0.0   -7.928874072279791e-06
5.053408354964043e-06   0.0   -7.928874072279791e-06
5.053408354964043e-06   0.0   -7.928874072279791e-06
6.360661970021409e-07   -2.6937832256892603e-07   -4.0501014880193406e-07
6.360661970021409e-07   -2.6937832256892603e-07   -4.0501014880193406e-07
6.360661970021409e-07   -2.6937832256892603e-07   -4.0501014880193406e-07
6.360661970021409e-07   -2.6937832256892603e-07   -4.0501014880193406e-07
2.80010108714497e-06   -1.2434610809909077e-07   -4.098754294388548e-06
2.80010108714497e-06   -1.2434610809909077e-07   -4.098754294388548e-06
2.80010108714497e-06   -1.2434610809909077e-07   -4.098754294388548e-06
2.80010108714497e-06   -1.2434610809909077e-07   -4.098754294388548e-06
6.360661970021403e-07   0.0   -7.767247078738429e-06
6.360661970021403e-07   0.0   -7.767247078738429e-06
6.360661970021403e-07   0.0   -7.767247078738429e-06
6.360661970021403e-07   0.0   -7.767247078738429e-06
5.053408354964043e-06   -2.6937832256892603e-07   -5.666371423432907e-07
5.053408354964043e-06   -2.6937832256892603e-07   -5.666371423432907e-07
5.053408354964043e-06   -2.6937832256892603e-07   -5.666371423432907e-07
5.053408354964043e-06   -2.6937832256892603e-07   -5.666371423432907e-07
5.16857506258894e-06   0.0   -7.629885727194301e-06
5.16857506258894e-06   0.0   -7.629885727194301e-06
5.16857506258894e-06   0.0   -7.629885727194301e-06
5.16857506258894e-06   0.0   -7.629885727194301e-06
7.506422246994788e-07   -4.136582522809343e-08   -2.418448355750118e-07
7.506422246994788e-07   -4.136582522809343e-08   -2.418448355750118e-07
7.506422246994788e-07   -4.136582522809343e-08   -2.418448355750118e-07
7.506422246994788e-07   -4.136582522809343e-08   -2.418448355750118e-07
2.902320629795538e-06   1.144677929534461e-07   -3.92147568164403e-06
2.902320629795538e-06   1.144677929534461e-07   -3.92147568164403e-06
2.902320629795538e-06   1.144677929534461e-07   -3.92147568164403e-06
2.902320629795538e-06   1.144677929534461e-07   -3.92147568164403e-06
5.027236771108176e-06   0.0   -8.007192285316756e-06
5.027236771108176e-06   0.0   -8.007192285316756e-06
5.027236771108176e-06   0.0   -8.007192285316756e-06
5.027236771108176e-06   0.0   -8.007192285316756e-06
1.1460153835278575e-05   -1.5090194608070523e-06   1.8089244784830754e-06
1.1460153835278575e-05   -1.5090194608070523e-06   1.8089244784830754e-06
1.1460153835278575e-05   -1.5090194608070523e-06   1.8089244784830754e-06
1.1460153835278575e-05   -1.5090194608070523e-06   1.8089244784830754e-06
1.0790067338670923e-05   0.0   -8.807325162908234e-06
1.0790067338670923e-05   0.0   -8.807325162908234e-06
1.0790067338670923e-05   0.0   -8.807325162908234e-06
1.0790067338670923e-05   0.0   -8.807325162908234e-06
5.057065175192133e-06   -1.27290234025903e-06   1.5114198470451673e-06
5.057065175192133e-06   -1.27290234025903e-06   1.5114198470451673e-06
5.057065175192133e-06   -1.27290234025903e-06   1.5114198470451673e-06
5.057065175192133e-06   -1.27290234025903e-06   1.5114198470451673e-06
7.908652054889549e-06   -6.667773979928981e-07   -3.6048999178102035e-06
7.908652054889549e-06   -6.667773979928981e-07   -3.6048999178102035e-06
7.908652054889549e-06   -6.667773979928981e-07   -3.6048999178102035e-06
7.908652054889549e-06   -6.667773979928981e-07   -3.6048999178102035e-06
5.057065175192128e-06   0.0   -8.043583758752809e-06
5.057065175192128e-06   0.0   -8.043583758752809e-06
5.057065175192128e-06   0.0   -8.043583758752809e-06
5.057065175192128e-06   0.0   -8.043583758752809e-06
1.0790067338670886e-05   -1.272902340259025e-06   7.476784428897429e-07
1.0790067338670886e-05   -1.272902340259025e-06   7.476784428897429e-07
1.0790067338670886e-05   -1.272902340259025e-06   7.476784428897429e-07
1.0790067338670886e-05   -1.272902340259025e-06   7.476784428897429e-07
1.0489194918621175e-05   0.0   -8.624413389309155e-06
1.0489194918621175e-05   0.0   -8.624413389309155e-06
1.0489194918621175e-05   0.0   -8.624413389309155e-06
1.0489194918621175e-05   0.0   -8.624413389309155e-06
5.053408354964043e-06   -1.1592321950489397e-06   1.1307702004820962e-06
5.053408354964043e-06   -1.1592321950489397e-06   1.1307702004820962e-06
5.053408354964043e-06   -1.1592321950489397e-06   1.1307702004820962e-06
5.053408354964043e-06   -1.1592321950489397e-06   1.1307702004820962e-06
7.773130046906649e-06   -4.840246921302831e-07   -3.80722378784011e-06
7.773130046906649e-06   -4.840246921302831e-07   -3.80722378784011e-06
7.773130046906649e-06   -4.840246921302831e-07   -3.80722378784011e-06
7.773130046906649e-06   -4.840246921302831e-07   -3.80722378784011e-06
5.053408354964043e-06   0.0   -7.928874072279791e-06
5.053408354964043e-06   0.0   -7.928874072279791e-06
5.053408354964043e-06   0.0   -7.928874072279791e-06
5.053408354964043e-06   0.0   -7.928874072279791e-06
1.048919491862114e-05   -1.1592321950489346e-06   4.352308834527323e-07
1.048919491862114e-05   -1.1592321950489346e-06   4.352308834527323e-07
1.048919491862114e-05   -1.1592321950489346e-06   4.352308834527323e-07
1.048919491862114e-05   -1.1592321950489346e-06   4.352308834527323e-07
1.0028698233517077e-05   0.0   -8.162694671001163e-06
1.0028698233517077e-05   0.0   -8.162694671001163e-06
1.0028698233517077e-05   0.0   -8.162694671001163e-06
1.0028698233517077e-05   0.0   -8.162694671001163e-06
5.1685750625889305e-06   -8.880149063447698e-07   4.703195576859265e-07
5.1685750625889305e-06   -8.880149063447698e-07   4.703195576859265e-07
5.1685750625889305e-06   -8.880149063447698e-07   4.703195576859265e-07
5.1685750625889305e-06   -8.880149063447698e-07   4.703195576859265e-07
7.54105329424056e-06   -1.9485049893447664e-07   -3.899709472846279e-06
7.54105329424056e-06   -1.9485049893447664e-07   -3.899709472846279e-06
7.54105329424056e-06   -1.9485049893447664e-07   -3.899709472846279e-06
7.54105329424056e-06   -1.9485049893447664e-07   -3.899709472846279e-06
-1.1122161246849502e-05   1.4114596980913865e-06   -7.447797858020598e-06
-1.1122161246849502e-05   1.4114596980913865e-06   -7.447797858020598e-06
-1.1122161246849502e-05   1.4114596980913865e-06   -7.447797858020598e-06
-1.1122161246849502e-05   1.4114596980913865e-06   -7.447797858020598e-06
-7.138690086180023e-06   1.2591770111732863e-06   -9.000488690556475e-07