<?xml version="1.0"?> 
<VTKFile type="UnstructuredGrid"> 
   <UnstructuredGrid> 
      <Piece NumberOfPoints="6000"  NumberOfCells="1500">  
          <Points>  
             <DataArray type="Float64" NumberOfComponents="3" format="ascii">   
-500.0   0.0   0.0
-450.0   0.0   0.0
-500.0   30.0   0.0
-500.0   0.0   16.666666666666668
-450.0   0.0   0.0
-450.0   30.0   0.0
-500.0   30.0   0.0
-450.0   30.0   16.666666666666668
-500.0   0.0   16.666666666666668
-500.0   30.0   16.666666666666668
-450.0   30.0   16.666666666666668
-500.0   30.0   0.0
-500.0   0.0   16.666666666666668
-450.0   30.0   16.666666666666668
-450.0   0.0   16.666666666666668
-450.0   0.0   0.0
-500.0   0.0   16.666666666666668
-450.0   30.0   16.666666666666668
-450.0   0.0   0.0
-500.0   30.0   0.0
-500.0   0.0   16.666666666666668
-450.0   0.0   16.666666666666668
-500.0   30.0   16.666666666666668
-500.0   0.0   33.333333333333336
-450.0   0.0   16.666666666666668
-450.0   30.0   16.666666666666668
-500.0   30.0   16.666666666666668
-450.0   30.0   33.333333333333336
-500.0   0.0   33.333333333333336
-500.0   30.0   33.333333333333336
-450.0   30.0   33.333333333333336
-500.0   30.0   16.666666666666668
-500.0   0.0   33.333333333333336
-450.0   30.0   33.333333333333336
-450.0   0.0   33.333333333333336
-450.0   0.0   16.666666666666668
-500.0   0.0   33.333333333333336
-450.0   30.0   33.333333333333336
-450.0   0.0   16.666666666666668
-500.0   30.0   16.666666666666668
-500.0   0.0   33.333333333333336
-450.0   0.0   33.333333333333336
-500.0   30.0   33.333333333333336
-500.0   0.0   50.0
-450.0   0.0   33.333333333333336
-450.0   30.0   33.333333333333336
-500.0   30.0   33.333333333333336
-450.0   30.0   50.0
-500.0   0.0   50.0
-500.0   30.0   50.0
-450.0   30.0   50.0
-500.0   30.0   33.333333333333336
-500.0   0.0   50.0
-450.0   30.0   50.0
-450.0   0.0   50.0
-450.0   0.0   33.333333333333336
-500.0   0.0   50.0
-450.0   30.0   50.0
-450.0   0.0   33.333333333333336
-500.0   30.0   33.333333333333336
-500.0   30.0   0.0
-450.0   30.0   0.0
-500.0   60.0   0.0
-500.0   30.0   16.666666666666668
-450.0   30.0   0.0
-450.0   60.0   0.0
-500.0   60.0   0.0
-450.0   60.0   16.666666666666668
-500.0   30.0   16.666666666666668
-500.0   60.0   16.666666666666668
-450.0   60.0   16.666666666666668
-500.0   60.0   0.0
-500.0   30.0   16.666666666666668
-450.0   60.0   16.666666666666668
-450.0   30.0   16.666666666666668
-450.0   30.0   0.0
-500.0   30.0   16.666666666666668
-450.0   60.0   16.666666666666668
-450.0   30.0   0.0
-500.0   60.0   0.0
-500.0   30.0   16.666666666666668
-450.0   30.0   16.666666666666668
-500.0   60.0   16.666666666666668
-500.0   30.0   33.333333333333336
-450.0   30.0   16.666666666666668
-450.0   60.0   16.666666666666668
-500.0   60.0   16.666666666666668
-450.0   60.0   33.333333333333336
-500.0   30.0   33.333333333333336
-500.0   60.0   33.333333333333336
-450.0   60.0   33.333333333333336
-500.0   60.0   16.666666666666668
-500.0   30.0   33.333333333333336
-450.0   60.0   33.333333333333336
-450.0   30.0   33.333333333333336
-450.0   30.0   16.666666666666668
-500.0   30.0   33.333333333333336
-450.0   60.0   33.333333333333336
-450.0   30.0   16.666666666666668
-500.0   60.0   16.666666666666668
-500.0   30.0   33.333333333333336
-450.0   30.0   33.333333333333336
-500.0   60.0   33.333333333333336
-500.0   30.0   50.0
-450.0   30.0   33.333333333333336
-450.0   60.0   33.333333333333336
-500.0   60.0   33.333333333333336
-450.0   60.0   50.0
-500.0   30.0   50.0
-500.0   60.0   50.0
-450.0   60.0   50.0
-500.0   60.0   33.333333333333336
-500.0   30.0   50.0
-450.0   60.0   50.0
-450.0   30.0   50.0
-450.0   30.0   33.333333333333336
-500.0   30.0   50.0
-450.0   60.0   50.0
-450.0   30.0   33.333333333333336
-500.0   60.0   33.333333333333336
-500.0   60.0   0.0
-450.0   60.0   0.0
-500.0   90.0   0.0
-500.0   60.0   16.666666666666668
-450.0   60.0   0.0
-450.0   90.0   0.0
-500.0   90.0   0.0
-450.0   90.0   16.666666666666668
-500.0   60.0   16.666666666666668
-500.0   90.0   16.666666666666668
-450.0   90.0   16.666666666666668
-500.0   90.0   0.0
-500.0   60.0   16.666666666666668
-450.0   90.0   16.666666666666668
-450.0   60.0   16.666666666666668
-450.0   60.0   0.0
-500.0   60.0   16.666666666666668
-450.0   90.0   16.666666666666668
-450.0   60.0   0.0
-500.0   90.0   0.0
-500.0   60.0   16.666666666666668
-450.0   60.0   16.666666666666668
-500.0   90.0   16.666666666666668
-500.0   60.0   33.333333333333336
-450.0   60.0   16.666666666666668
-450.0   90.0   16.666666666666668
-500.0   90.0   16.666666666666668
-450.0   90.0   33.333333333333336
-500.0   60.0   33.333333333333336
-500.0   90.0   33.333333333333336
-450.0   90.0   33.333333333333336
-500.0   90.0   16.666666666666668
-500.0   60.0   33.333333333333336
-450.0   90.0   33.333333333333336
-450.0   60.0   33.333333333333336
-450.0   60.0   16.666666666666668
-500.0   60.0   33.333333333333336
-450.0   90.0   33.333333333333336
-450.0   60.0   16.666666666666668
-500.0   90.0   16.666666666666668
-500.0   60.0   33.333333333333336
-450.0   60.0   33.333333333333336
-500.0   90.0   33.333333333333336
-500.0   60.0   50.0
-450.0   60.0   33.333333333333336
-450.0   90.0   33.333333333333336
-500.0   90.0   33.333333333333336
-450.0   90.0   50.0
-500.0   60.0   50.0
-500.0   90.0   50.0
-450.0   90.0   50.0
-500.0   90.0   33.333333333333336
-500.0   60.0   50.0
-450.0   90.0   50.0
-450.0   60.0   50.0
-450.0   60.0   33.333333333333336
-500.0   60.0   50.0
-450.0   90.0   50.0
-450.0   60.0   33.333333333333336
-500.0   90.0   33.333333333333336
-500.0   90.0   0.0
-450.0   90.0   0.0
-500.0   120.0   0.0
-500.0   90.0   16.666666666666668
-450.0   90.0   0.0
-450.0   120.0   0.0
-500.0   120.0   0.0
-450.0   120.0   16.666666666666668
-500.0   90.0   16.666666666666668
-500.0   120.0   16.666666666666668
-450.0   120.0   16.666666666666668
-500.0   120.0   0.0
-500.0   90.0   16.666666666666668
-450.0   120.0   16.666666666666668
-450.0   90.0   16.666666666666668
-450.0   90.0   0.0
-500.0   90.0   16.666666666666668
-450.0   120.0   16.666666666666668
-450.0   90.0   0.0
-500.0   120.0   0.0
-500.0   90.0   16.666666666666668
-450.0   90.0   16.666666666666668
-500.0   120.0   16.666666666666668
-500.0   90.0   33.333333333333336
-450.0   90.0   16.666666666666668
-450.0   120.0   16.666666666666668
-500.0   120.0   16.666666666666668
-450.0   120.0   33.333333333333336
-500.0   90.0   33.333333333333336
-500.0   120.0   33.333333333333336
-450.0   120.0   33.333333333333336
-500.0   120.0   16.666666666666668
-500.0   90.0   33.333333333333336
-450.0   120.0   33.333333333333336
-450.0   90.0   33.333333333333336
-450.0   90.0   16.666666666666668
-500.0   90.0   33.333333333333336
-450.0   120.0   33.333333333333336
-450.0   90.0   16.666666666666668
-500.0   120.0   16.666666666666668
-500.0   90.0   33.333333333333336
-450.0   90.0   33.333333333333336
-500.0   120.0   33.333333333333336
-500.0   90.0   50.0
-450.0   90.0   33.333333333333336
-450.0   120.0   33.333333333333336
-500.0   120.0   33.333333333333336
-450.0   120.0   50.0
-500.0   90.0   50.0
-500.0   120.0   50.0
-450.0   120.0   50.0
-500.0   120.0   33.333333333333336
-500.0   90.0   50.0
-450.0   120.0   50.0
-450.0   90.0   50.0
-450.0   90.0   33.333333333333336
-500.0   90.0   50.0
-450.0   120.0   50.0
-450.0   90.0   33.333333333333336
-500.0   120.0   33.333333333333336
-500.0   120.0   0.0
-450.0   120.0   0.0
-500.0   150.0   0.0
-500.0   120.0   16.666666666666668
-450.0   120.0   0.0
-450.0   150.0   0.0
-500.0   150.0   0.0
-450.0   150.0   16.666666666666668
-500.0   120.0   16.666666666666668
-500.0   150.0   16.666666666666668
-450.0   150.0   16.666666666666668
-500.0   150.0   0.0
-500.0   120.0   16.666666666666668
-450.0   150.0   16.666666666666668
-450.0   120.0   16.666666666666668
-450.0   120.0   0.0
-500.0   120.0   16.666666666666668
-450.0   150.0   16.666666666666668
-450.0   120.0   0.0
-500.0   150.0   0.0
-500.0   120.0   16.666666666666668
-450.0   120.0   16.666666666666668
-500.0   150.0   16.666666666666668
-500.0   120.0   33.333333333333336
-450.0   120.0   16.666666666666668
-450.0   150.0   16.666666666666668
-500.0   150.0   16.666666666666668
-450.0   150.0   33.333333333333336
-500.0   120.0   33.333333333333336
-500.0   150.0   33.333333333333336
-450.0   150.0   33.333333333333336
-500.0   150.0   16.666666666666668
-500.0   120.0   33.333333333333336
-450.0   150.0   33.333333333333336
-450.0   120.0   33.333333333333336
-450.0   120.0   16.666666666666668
-500.0   120.0   33.333333333333336
-450.0   150.0   33.333333333333336
-450.0   120.0   16.666666666666668
-500.0   150.0   16.666666666666668
-500.0   120.0   33.333333333333336
-450.0   120.0   33.333333333333336
-500.0   150.0   33.333333333333336
-500.0   120.0   50.0
-450.0   120.0   33.333333333333336
-450.0   150.0   33.333333333333336
-500.0   150.0   33.333333333333336
-450.0   150.0   50.0
-500.0   120.0   50.0
-500.0   150.0   50.0
-450.0   150.0   50.0
-500.0   150.0   33.333333333333336
-500.0   120.0   50.0
-450.0   150.0   50.0
-450.0   120.0   50.0
-450.0   120.0   33.333333333333336
-500.0   120.0   50.0
-450.0   150.0   50.0
-450.0   120.0   33.333333333333336
-500.0   150.0   33.333333333333336
-450.0   0.0   0.0
-400.0   0.0   0.0
-450.0   30.0   0.0
-450.0   0.0   16.666666666666668
-400.0   0.0   0.0
-400.0   30.0   0.0
-450.0   30.0   0.0
-400.0   30.0   16.666666666666668
-450.0   0.0   16.666666666666668
-450.0   30.0   16.666666666666668
-400.0   30.0   16.666666666666668
-450.0   30.0   0.0
-450.0   0.0   16.666666666666668
-400.0   30.0   16.666666666666668
-400.0   0.0   16.666666666666668
-400.0   0.0   0.0
-450.0   0.0   16.666666666666668
-400.0   30.0   16.666666666666668
-400.0   0.0   0.0
-450.0   30.0   0.0
-450.0   0.0   16.666666666666668
-400.0   0.0   16.666666666666668
-450.0   30.0   16.666666666666668
[...]
          <PointData>  
             <DataArray type="Float64" NumberOfComponents="3" Name="Strains" format="ascii">   
-8.811470777282807e-05   0.0   -5.7847620113455286e-05
-8.811470777282807e-05   0.0   -5.7847620113455286e-05
-8.811470777282807e-05   0.0   -5.7847620113455286e-05
-8.811470777282807e-05   0.0   -5.7847620113455286e-05
-5.6067336866101864e-05   9.759060494663775e-06   1.4201010278865604e-06
-5.6067336866101864e-05   9.759060494663775e-06   1.4201010278865604e-06
-5.6067336866101864e-05   9.759060494663775e-06   1.4201010278865604e-06
-5.6067336866101864e-05   9.759060494663775e-06   1.4201010278865604e-06
-5.495745030111176e-05   0.0   -5.459908309714371e-05
-5.495745030111176e-05   0.0   -5.459908309714371e-05
-5.495745030111176e-05   0.0   -5.459908309714371e-05
-5.495745030111176e-05   0.0   -5.459908309714371e-05
-9.221490587969279e-05   1.1712495372744343e-05   4.691789768449667e-07
-9.221490587969279e-05   1.1712495372744343e-05   4.691789768449667e-07
-9.221490587969279e-05   1.1712495372744343e-05   4.691789768449667e-07
-9.221490587969279e-05   1.1712495372744343e-05   4.691789768449667e-07
-7.15360790369698e-05   2.707114180259641e-06   -2.8592303712202496e-05
-7.15360790369698e-05   2.707114180259641e-06   -2.8592303712202496e-05
-7.15360790369698e-05   2.707114180259641e-06   -2.8592303712202496e-05
-7.15360790369698e-05   2.707114180259641e-06   -2.8592303712202496e-05
-9.221490587969295e-05   0.0   -6.162658032079033e-05
-9.221490587969295e-05   0.0   -6.162658032079033e-05
-9.221490587969295e-05   0.0   -6.162658032079033e-05
-9.221490587969295e-05   0.0   -6.162658032079033e-05
-5.495745030111176e-05   1.1712495372744356e-05   7.4966762004915804e-06
-5.495745030111176e-05   1.1712495372744356e-05   7.4966762004915804e-06
-5.495745030111176e-05   1.1712495372744356e-05   7.4966762004915804e-06
-5.495745030111176e-05   1.1712495372744356e-05   7.4966762004915804e-06
-5.511129806235464e-05   0.0   -5.593516943382122e-05
-5.511129806235464e-05   0.0   -5.593516943382122e-05
-5.511129806235464e-05   0.0   -5.593516943382122e-05
-5.511129806235464e-05   0.0   -5.593516943382122e-05
-9.509391057787975e-05   1.254847966888682e-05   3.173430290722139e-06
-9.509391057787975e-05   1.254847966888682e-05   3.173430290722139e-06
-9.509391057787975e-05   1.254847966888682e-05   3.173430290722139e-06
-9.509391057787975e-05   1.254847966888682e-05   3.173430290722139e-06
-7.366310197102367e-05   4.742842405807589e-06   -2.786120169619044e-05
-7.366310197102367e-05   4.742842405807589e-06   -2.786120169619044e-05
-7.366310197102367e-05   4.742842405807589e-06   -2.786120169619044e-05
-7.366310197102367e-05   4.742842405807589e-06   -2.786120169619044e-05
-9.509391057787992e-05   0.0   -6.346425723515332e-05
-9.509391057787992e-05   0.0   -6.346425723515332e-05
-9.509391057787992e-05   0.0   -6.346425723515332e-05
-9.509391057787992e-05   0.0   -6.346425723515332e-05
-5.5111298062354544e-05   1.254847966888682e-05   1.0702518092054223e-05
-5.5111298062354544e-05   1.254847966888682e-05   1.0702518092054223e-05
-5.5111298062354544e-05   1.254847966888682e-05   1.0702518092054223e-05
-5.5111298062354544e-05   1.254847966888682e-05   1.0702518092054223e-05
-5.508104302366083e-05   0.0   -5.6278670412890654e-05
-5.508104302366083e-05   0.0   -5.6278670412890654e-05
-5.508104302366083e-05   0.0   -5.6278670412890654e-05
-5.508104302366083e-05   0.0   -5.6278670412890654e-05
-0.00010129721312654326   1.4296246229895834e-05   1.2170532020642778e-05
-0.00010129721312654326   1.4296246229895834e-05   1.2170532020642778e-05
-0.00010129721312654326   1.4296246229895834e-05   1.2170532020642778e-05
-0.00010129721312654326   1.4296246229895834e-05   1.2170532020642778e-05
-7.508747680077025e-05   5.987989018552218e-06   -2.652740752883934e-05
-7.508747680077025e-05   5.987989018552218e-06   -2.652740752883934e-05
-7.508747680077025e-05   5.987989018552218e-06   -2.652740752883934e-05
-7.508747680077025e-05   5.987989018552218e-06   -2.652740752883934e-05
-5.606733686610196e-05   0.0   -5.199218381665701e-05
-5.606733686610196e-05   0.0   -5.199218381665701e-05
-5.606733686610196e-05   0.0   -5.199218381665701e-05
-5.606733686610196e-05   0.0   -5.199218381665701e-05
-2.5534689006919417e-05   3.578784418787587e-06   1.0428332665864015e-06
-2.5534689006919417e-05   3.578784418787587e-06   1.0428332665864015e-06
-2.5534689006919417e-05   3.578784418787587e-06   1.0428332665864015e-06
-2.5534689006919417e-05   3.578784418787587e-06   1.0428332665864015e-06
-2.455778962996613e-05   0.0   -5.154156849151418e-05
-2.455778962996613e-05   0.0   -5.154156849151418e-05
-2.455778962996613e-05   0.0   -5.154156849151418e-05
-2.455778962996613e-05   0.0   -5.154156849151418e-05
-5.495745030111176e-05   5.095857676049083e-06   -3.932981978567744e-06
-5.495745030111176e-05   5.095857676049083e-06   -3.932981978567744e-06
-5.495745030111176e-05   5.095857676049083e-06   -3.932981978567744e-06
-5.495745030111176e-05   5.095857676049083e-06   -3.932981978567744e-06
-4.0312563248034e-05   3.755127709522882e-07   -2.550892012397242e-05
-4.0312563248034e-05   3.755127709522882e-07   -2.550892012397242e-05
-4.0312563248034e-05   3.755127709522882e-07   -2.550892012397242e-05
-4.0312563248034e-05   3.755127709522882e-07   -2.550892012397242e-05
-5.4957450301111715e-05   0.0   -5.4599083097143665e-05
-5.4957450301111715e-05   0.0   -5.4599083097143665e-05
-5.4957450301111715e-05   0.0   -5.4599083097143665e-05
-5.4957450301111715e-05   0.0   -5.4599083097143665e-05
-2.455778962996613e-05   5.095857676049083e-06   -8.754673729382848e-07
-2.455778962996613e-05   5.095857676049083e-06   -8.754673729382848e-07
-2.455778962996613e-05   5.095857676049083e-06   -8.754673729382848e-07
-2.455778962996613e-05   5.095857676049083e-06   -8.754673729382848e-07
-2.4008666051393565e-05   0.0   -5.218831806579377e-05
-2.4008666051393565e-05   0.0   -5.218831806579377e-05
-2.4008666051393565e-05   0.0   -5.218831806579377e-05
-2.4008666051393565e-05   0.0   -5.218831806579377e-05
-5.511129806235464e-05   6.244752280045606e-06   -4.097449415552839e-06
-5.511129806235464e-05   6.244752280045606e-06   -4.097449415552839e-06
-5.511129806235464e-05   6.244752280045606e-06   -4.097449415552839e-06
-5.511129806235464e-05   6.244752280045606e-06   -4.097449415552839e-06
-3.948305817625261e-05   2.0089708594582076e-06   -2.76030470400369e-05
-3.948305817625261e-05   2.0089708594582076e-06   -2.76030470400369e-05
-3.948305817625261e-05   2.0089708594582076e-06   -2.76030470400369e-05
-3.948305817625261e-05   2.0089708594582076e-06   -2.76030470400369e-05
-5.511129806235464e-05   0.0   -5.593516943382122e-05
-5.511129806235464e-05   0.0   -5.593516943382122e-05
-5.511129806235464e-05   0.0   -5.593516943382122e-05
-5.511129806235464e-05   0.0   -5.593516943382122e-05
-2.4008666051393605e-05   6.244752280045606e-06   -3.505980475254847e-07
-2.4008666051393605e-05   6.244752280045606e-06   -3.505980475254847e-07
-2.4008666051393605e-05   6.244752280045606e-06   -3.505980475254847e-07
-2.4008666051393605e-05   6.244752280045606e-06   -3.505980475254847e-07
-2.3508457373623417e-05   0.0   -5.1918609024737136e-05
-2.3508457373623417e-05   0.0   -5.1918609024737136e-05
-2.3508457373623417e-05   0.0   -5.1918609024737136e-05
-2.3508457373623417e-05   0.0   -5.1918609024737136e-05
-5.508104302366078e-05   7.266768980255782e-06   -3.65769432949495e-06
-5.508104302366078e-05   7.266768980255782e-06   -3.65769432949495e-06
-5.508104302366078e-05   7.266768980255782e-06   -3.65769432949495e-06
-5.508104302366078e-05   7.266768980255782e-06   -3.65769432949495e-06
-3.9309877717989014e-05   3.3471336742366988e-06   -2.7591188655336494e-05
-3.9309877717989014e-05   3.3471336742366988e-06   -2.7591188655336494e-05
-3.9309877717989014e-05   3.3471336742366988e-06   -2.7591188655336494e-05
-3.9309877717989014e-05   3.3471336742366988e-06   -2.7591188655336494e-05
-2.553468900691946e-05   0.0   -4.984491316538446e-05
-2.553468900691946e-05   0.0   -4.984491316538446e-05
-2.553468900691946e-05   0.0   -4.984491316538446e-05
-2.553468900691946e-05   0.0   -4.984491316538446e-05
3.3119515204465262e-06   -4.5883749773857347e-07   -2.0424814517509134e-06
3.3119515204465262e-06   -4.5883749773857347e-07   -2.0424814517509134e-06
3.3119515204465262e-06   -4.5883749773857347e-07   -2.0424814517509134e-06
3.3119515204465262e-06   -4.5883749773857347e-07   -2.0424814517509134e-06
3.936034150391459e-06   0.0   -5.099942451445925e-05
3.936034150391459e-06   0.0   -5.099942451445925e-05
3.936034150391459e-06   0.0   -5.099942451445925e-05
3.936034150391459e-06   0.0   -5.099942451445925e-05
-2.455778962996613e-05   9.035732950914003e-07   -4.051862190918194e-06
-2.455778962996613e-05   9.035732950914003e-07   -4.051862190918194e-06
-2.455778962996613e-05   9.035732950914003e-07   -4.051862190918194e-06
-2.455778962996613e-05   9.035732950914003e-07   -4.051862190918194e-06
-1.0799327428263975e-05   -9.620927908957983e-07   -2.58632328754961e-05
-1.0799327428263975e-05   -9.620927908957983e-07   -2.58632328754961e-05
-1.0799327428263975e-05   -9.620927908957983e-07   -2.58632328754961e-05
-1.0799327428263975e-05   -9.620927908957983e-07   -2.58632328754961e-05
-2.455778962996617e-05   0.0   -5.1541568491514267e-05
-2.455778962996617e-05   0.0   -5.1541568491514267e-05
-2.455778962996617e-05   0.0   -5.1541568491514267e-05
-2.455778962996617e-05   0.0   -5.1541568491514267e-05
3.936034150391466e-06   9.035732950914003e-07   -3.5097182138633514e-06
3.936034150391466e-06   9.035732950914003e-07   -3.5097182138633514e-06
3.936034150391466e-06   9.035732950914003e-07   -3.5097182138633514e-06
3.936034150391466e-06   9.035732950914003e-07   -3.5097182138633514e-06
4.4287506609092645e-06   0.0   -5.0926374449467804e-05
4.4287506609092645e-06   0.0   -5.0926374449467804e-05
4.4287506609092645e-06   0.0   -5.0926374449467804e-05
4.4287506609092645e-06   0.0   -5.0926374449467804e-05
-2.4008666051393524e-05   2.1032393605432845e-06   -4.7926235452890625e-06
-2.4008666051393524e-05   2.1032393605432845e-06   -4.7926235452890625e-06
-2.4008666051393524e-05   2.1032393605432845e-06   -4.7926235452890625e-06
-2.4008666051393524e-05   2.1032393605432845e-06   -4.7926235452890625e-06
-1.0064519484528432e-05   5.126617017053151e-07   -2.7078521228094815e-05
-1.0064519484528432e-05   5.126617017053151e-07   -2.7078521228094815e-05
-1.0064519484528432e-05   5.126617017053151e-07   -2.7078521228094815e-05
-1.0064519484528432e-05   5.126617017053151e-07   -2.7078521228094815e-05
-2.4008666051393605e-05   0.0   -5.2188318065793866e-05
-2.4008666051393605e-05   0.0   -5.2188318065793866e-05
-2.4008666051393605e-05   0.0   -5.2188318065793866e-05
-2.4008666051393605e-05   0.0   -5.2188318065793866e-05
4.428750660909272e-06   2.103239360543271e-06   -3.530679928963102e-06
4.428750660909272e-06   2.103239360543271e-06   -3.530679928963102e-06
4.428750660909272e-06   2.103239360543271e-06   -3.530679928963102e-06
4.428750660909272e-06   2.103239360543271e-06   -3.530679928963102e-06
5.091323994775156e-06   0.0   -4.982299471603265e-05
5.091323994775156e-06   0.0   -4.982299471603265e-05
5.091323994775156e-06   0.0   -4.982299471603265e-05
5.091323994775156e-06   0.0   -4.982299471603265e-05
-2.3508457373623397e-05   3.492690514507403e-06   -4.252306744072843e-06
-2.3508457373623397e-05   3.492690514507403e-06   -4.252306744072843e-06
-2.3508457373623397e-05   3.492690514507403e-06   -4.252306744072843e-06
-2.3508457373623397e-05   3.492690514507403e-06   -4.252306744072843e-06
-9.458671028309205e-06   1.971102791467604e-06   -2.6755664685772592e-05
-9.458671028309205e-06   1.971102791467604e-06   -2.6755664685772592e-05
-9.458671028309205e-06   1.971102791467604e-06   -2.6755664685772592e-05
-9.458671028309205e-06   1.971102791467604e-06   -2.6755664685772592e-05
3.311951520446532e-06   0.0   -5.012021566402761e-05
3.311951520446532e-06   0.0   -5.012021566402761e-05
3.311951520446532e-06   0.0   -5.012021566402761e-05
3.311951520446532e-06   0.0   -5.012021566402761e-05
3.462551490354415e-05   -4.061225247405635e-06   -3.6767850730826573e-07
3.462551490354415e-05   -4.061225247405635e-06   -3.6767850730826573e-07
3.462551490354415e-05   -4.061225247405635e-06   -3.6767850730826573e-07
3.462551490354415e-05   -4.061225247405635e-06   -3.6767850730826573e-07
3.468799026798434e-05   0.0   -5.2836207224242e-05
3.468799026798434e-05   0.0   -5.2836207224242e-05
3.468799026798434e-05   0.0   -5.2836207224242e-05
3.468799026798434e-05   0.0   -5.2836207224242e-05
3.936034150391473e-06   -3.0613045163043064e-06   2.538356815286783e-07
3.936034150391473e-06   -3.0613045163043064e-06   2.538356815286783e-07
3.936034150391473e-06   -3.0613045163043064e-06   2.538356815286783e-07
3.936034150391473e-06   -3.0613045163043064e-06   2.538356815286783e-07
1.8999970894215436e-05   -2.263326300178658e-06   -2.533151248785328e-05
1.8999970894215436e-05   -2.263326300178658e-06   -2.533151248785328e-05
1.8999970894215436e-05   -2.263326300178658e-06   -2.533151248785328e-05
1.8999970894215436e-05   -2.263326300178658e-06   -2.533151248785328e-05
3.936034150391473e-06   0.0   -5.0999424514459424e-05
3.936034150391473e-06   0.0   -5.0999424514459424e-05
3.936034150391473e-06   0.0   -5.0999424514459424e-05
3.936034150391473e-06   0.0   -5.0999424514459424e-05
3.468799026798434e-05   -3.0613045163043064e-06   -1.5829470282538986e-06
3.468799026798434e-05   -3.0613045163043064e-06   -1.5829470282538986e-06
3.468799026798434e-05   -3.0613045163043064e-06   -1.5829470282538986e-06
3.468799026798434e-05   -3.0613045163043064e-06   -1.5829470282538986e-06
3.454020686997821e-05   0.0   -5.208173262049004e-05
3.454020686997821e-05   0.0   -5.208173262049004e-05
3.454020686997821e-05   0.0   -5.208173262049004e-05
3.454020686997821e-05   0.0   -5.208173262049004e-05
4.428750660909272e-06   -1.925596951703583e-06   -7.406141010196736e-07
4.428750660909272e-06   -1.925596951703583e-06   -7.406141010196736e-07
4.428750660909272e-06   -1.925596951703583e-06   -7.406141010196736e-07
4.428750660909272e-06   -1.925596951703583e-06   -7.406141010196736e-07
1.923812051018484e-05   -9.019234216921834e-07   -2.6037101301152432e-05
1.923812051018484e-05   -9.019234216921834e-07   -2.6037101301152432e-05
1.923812051018484e-05   -9.019234216921834e-07   -2.6037101301152432e-05
1.923812051018484e-05   -9.019234216921834e-07   -2.6037101301152432e-05
4.428750660909268e-06   0.0   -5.092637444946785e-05
4.428750660909268e-06   0.0   -5.092637444946785e-05
4.428750660909268e-06   0.0   -5.092637444946785e-05
4.428750660909268e-06   0.0   -5.092637444946785e-05
3.454020686997821e-05   -1.925596951703583e-06   -1.8959722720418226e-06
3.454020686997821e-05   -1.925596951703583e-06   -1.8959722720418226e-06
3.454020686997821e-05   -1.925596951703583e-06   -1.8959722720418226e-06
3.454020686997821e-05   -1.925596951703583e-06   -1.8959722720418226e-06
3.520989644507628e-05   0.0   -5.00626989839989e-05
3.520989644507628e-05   0.0   -5.00626989839989e-05
3.520989644507628e-05   0.0   -5.00626989839989e-05
3.520989644507628e-05   0.0   -5.00626989839989e-05
5.091323994775165e-06   -3.995071132769425e-07   3.7462603446911054e-07
5.091323994775165e-06   -3.995071132769425e-07   3.7462603446911054e-07
5.091323994775165e-06   -3.995071132769425e-07   3.7462603446911054e-07
5.091323994775165e-06   -3.995071132769425e-07   3.7462603446911054e-07
1.981932355299276e-05   7.197295545574971e-07   -2.4843581896594185e-05
1.981932355299276e-05   7.197295545574971e-07   -2.4843581896594185e-05
1.981932355299276e-05   7.197295545574971e-07   -2.4843581896594185e-05
1.981932355299276e-05   7.197295545574971e-07   -2.4843581896594185e-05
3.462551490354415e-05   0.0   -5.255695081247099e-05
3.462551490354415e-05   0.0   -5.255695081247099e-05
3.462551490354415e-05   0.0   -5.255695081247099e-05
3.462551490354415e-05   0.0   -5.255695081247099e-05
7.817683139686135e-05   -1.0295796335177347e-05   1.3851098875285048e-05
7.817683139686135e-05   -1.0295796335177347e-05   1.3851098875285048e-05
7.817683139686135e-05   -1.0295796335177347e-05   1.3851098875285048e-05
7.817683139686135e-05   -1.0295796335177347e-05   1.3851098875285048e-05
7.342183676005346e-05   0.0   -5.8091970913345554e-05
7.342183676005346e-05   0.0   -5.8091970913345554e-05
7.342183676005346e-05   0.0   -5.8091970913345554e-05
7.342183676005346e-05   0.0   -5.8091970913345554e-05
3.468799026798434e-05   -8.759606148505916e-06   1.1720203595873182e-05
3.468799026798434e-05   -8.759606148505916e-06   1.1720203595873182e-05
3.468799026798434e-05   -8.759606148505916e-06   1.1720203595873182e-05
3.468799026798434e-05   -8.759606148505916e-06   1.1720203595873182e-05
5.40236758317988e-05   -4.612516750728805e-06   -2.2994192649150488e-05
5.40236758317988e-05   -4.612516750728805e-06   -2.2994192649150488e-05
5.40236758317988e-05   -4.612516750728805e-06   -2.2994192649150488e-05
5.40236758317988e-05   -4.612516750728805e-06   -2.2994192649150488e-05
3.468799026798431e-05   0.0   -5.283620722424196e-05
3.468799026798431e-05   0.0   -5.283620722424196e-05
3.468799026798431e-05   0.0   -5.283620722424196e-05
3.468799026798431e-05   0.0   -5.283620722424196e-05
7.34218367600532e-05   -8.759606148505889e-06   6.464439906769606e-06
7.34218367600532e-05   -8.759606148505889e-06   6.464439906769606e-06
7.34218367600532e-05   -8.759606148505889e-06   6.464439906769606e-06
7.34218367600532e-05   -8.759606148505889e-06   6.464439906769606e-06
7.122947103040795e-05   0.0   -5.688421559955728e-05
7.122947103040795e-05   0.0   -5.688421559955728e-05
7.122947103040795e-05   0.0   -5.688421559955728e-05
7.122947103040795e-05   0.0   -5.688421559955728e-05
3.454020686997821e-05   -8.004138298445382e-06   9.067040980226197e-06
3.454020686997821e-05   -8.004138298445382e-06   9.067040980226197e-06
3.454020686997821e-05   -8.004138298445382e-06   9.067040980226197e-06
3.454020686997821e-05   -8.004138298445382e-06   9.067040980226197e-06
5.295873064919612e-05   -3.3733403127627346e-06   -2.440897744321325e-05
5.295873064919612e-05   -3.3733403127627346e-06   -2.440897744321325e-05
5.295873064919612e-05   -3.3733403127627346e-06   -2.440897744321325e-05
5.295873064919612e-05   -3.3733403127627346e-06   -2.440897744321325e-05
3.454020686997821e-05   0.0   -5.208173262049004e-05
3.454020686997821e-05   0.0   -5.208173262049004e-05
3.454020686997821e-05   0.0   -5.208173262049004e-05
3.454020686997821e-05   0.0   -5.208173262049004e-05
7.12294710304077e-05   -8.004138298445355e-06   4.264558001158936e-06
7.12294710304077e-05   -8.004138298445355e-06   4.264558001158936e-06
7.12294710304077e-05   -8.004138298445355e-06   4.264558001158936e-06
7.12294710304077e-05   -8.004138298445355e-06   4.264558001158936e-06
6.79651097890134e-05   0.0   -5.379496724955906e-05
6.79651097890134e-05   0.0   -5.379496724955906e-05
6.79651097890134e-05   0.0   -5.379496724955906e-05
6.79651097890134e-05   0.0   -5.379496724955906e-05
3.520989644507622e-05   -6.220447109266919e-06   4.529323255896304e-06
3.520989644507622e-05   -6.220447109266919e-06   4.529323255896304e-06
3.520989644507622e-05   -6.220447109266919e-06   4.529323255896304e-06
3.520989644507622e-05   -6.220447109266919e-06   4.529323255896304e-06
5.1252658329495806e-05   -1.4276955242241776e-06   -2.5084264169161873e-05
5.1252658329495806e-05   -1.4276955242241776e-06   -2.5084264169161873e-05
5.1252658329495806e-05   -1.4276955242241776e-06   -2.5084264169161873e-05
5.1252658329495806e-05   -1.4276955242241776e-06   -2.5084264169161873e-05
-7.643886827158392e-05   9.759060494663762e-06   -5.016559748321896e-05
-7.643886827158392e-05   9.759060494663762e-06   -5.016559748321896e-05
-7.643886827158392e-05   9.759060494663762e-06   -5.016559748321896e-05
-7.643886827158392e-05   9.759060494663762e-06   -5.016559748321896e-05
-4.8959655016757905e-05   8.775358717541765e-06   -4.957129791448788e-06