<?xml version="1.0"?> 
<VTKFile type="UnstructuredGrid"> 
   <UnstructuredGrid> 
      <Piece NumberOfPoints="6000"  NumberOfCells="1500">  
          <Points>  
             <DataArray type="Float64" NumberOfComponents="3" format="ascii">   
-500.0   0.0   0.0
-450.0   0.0   0.0
-500.0   30.0   0.0
-500.0   0.0   16.666666666666668
-450.0   0.0   0.0
-450.0   30.0   0.0
-500.0   30.0   0.0
-450.0   30.0   16.666666666666668
-500.0   0.0   16.666666666666668
-500.0   30.0   16.666666666666668
-450.0   30.0   16.666666666666668
-500.0   30.0   0.0
-500.0   0.0   16.666666666666668
-450.0   30.0   16.666666666666668
-450.0   0.0   16.666666666666668
-450.0   0.0   0.0
-500.0   0.0   16.666666666666668
-450.0   30.0   16.666666666666668
-450.0   0.0   0.0
-500.0   30.0   0.0
-500.0   0.0   16.666666666666668
-450.0   0.0   16.666666666666668
-500.0   30.0   16.666666666666668
-500.0   0.0   33.333333333333336
-450.0   0.0   16.666666666666668
-450.0   30.0   16.666666666666668
-500.0   30.0   16.666666666666668
-450.0   30.0   33.333333333333336
-500.0   0.0   33.333333333333336
-500.0   30.0   33.333333333333336
-450.0   30.0   33.333333333333336
-500.0   30.0   16.666666666666668
-500.0   0.0   33.333333333333336
-450.0   30.0   33.333333333333336
-450.0   0.0   33.333333333333336
-450.0   0.0   16.666666666666668
-500.0   0.0   33.333333333333336
-450.0   30.0   33.333333333333336
-450.0   0.0   16.666666666666668
-500.0   30.0   16.666666666666668
-500.0   0.0   33.333333333333336
-450.0   0.0   33.333333333333336
-500.0   30.0   33.333333333333336
-500.0   0.0   50.0
-450.0   0.0   33.333333333333336
-450.0   30.0   33.333333333333336
-500.0   30.0   33.333333333333336
-450.0   30.0   50.0
-500.0   0.0   50.0
-500.0   30.0   50.0
-450.0   30.0   50.0
-500.0   30.0   33.333333333333336
-500.0   0.0   50.0
-450.0   30.0   50.0
-450.0   0.0   50.0
-450.0   0.0   33.333333333333336
-500.0   0.0   50.0
-450.0   30.0   50.0
-450.0   0.0   33.333333333333336
-500.0   30.0   33.333333333333336
-500.0   30.0   0.0
-450.0   30.0   0.0
-500.0   60.0   0.0
-500.0   30.0   16.666666666666668
-450.0   30.0   0.0
-450.0   60.0   0.0
-500.0   60.0   0.0
-450.0   60.0   16.666666666666668
-500.0   30.0   16.666666666666668
-500.0   60.0   16.666666666666668
-450.0   60.0   16.666666666666668
-500.0   60.0   0.0
-500.0   30.0   16.666666666666668
-450.0   60.0   16.666666666666668
-450.0   30.0   16.666666666666668
-450.0   30.0   0.0
-500.0   30.0   16.666666666666668
-450.0   60.0   16.666666666666668
-450.0   30.0   0.0
-500.0   60.0   0.0
-500.0   30.0   16.666666666666668
-450.0   30.0   16.666666666666668
-500.0   60.0   16.666666666666668
-500.0   30.0   33.333333333333336
-450.0   30.0   16.666666666666668
-450.0   60.0   16.666666666666668
-500.0   60.0   16.666666666666668
-450.0   60.0   33.333333333333336
-500.0   30.0   33.333333333333336
-500.0   60.0   33.333333333333336
-450.0   60.0   33.333333333333336
-500.0   60.0   16.666666666666668
-500.0   30.0   33.333333333333336
-450.0   60.0   33.333333333333336
-450.0   30.0   33.333333333333336
-450.0   30.0   16.666666666666668
-500.0   30.0   33.333333333333336
-450.0   60.0   33.333333333333336
-450.0   30.0   16.666666666666668
-500.0   60.0   16.666666666666668
-500.0   30.0   33.333333333333336
-450.0   30.0   33.333333333333336
-500.0   60.0   33.333333333333336
-500.0   30.0   50.0
-450.0   30.0   33.333333333333336
-450.0   60.0   33.333333333333336
-500.0   60.0   33.333333333333336
-450.0   60.0   50.0
-500.0   30.0   50.0
-500.0   60.0   50.0
-450.0   60.0   50.0
-500.0   60.0   33.333333333333336
-500.0   30.0   50.0
-450.0   60.0   50.0
-450.0   30.0   50.0
-450.0   30.0   33.333333333333336
-500.0   30.0   50.0
-450.0   60.0   50.0
-450.0   30.0   33.333333333333336
-500.0   60.0   33.333333333333336
-500.0   60.0   0.0
-450.0   60.0   0.0
-500.0   90.0   0.0
-500.0   60.0   16.666666666666668
-450.0   60.0   0.0
-450.0   90.0   0.0
-500.0   90.0   0.0
-450.0   90.0   16.666666666666668
-500.0   60.0   16.666666666666668
-500.0   90.0   16.666666666666668
-450.0   90.0   16.666666666666668
-500.0   90.0   0.0
-500.0   60.0   16.666666666666668
-450.0   90.0   16.666666666666668
-450.0   60.0   16.666666666666668
-450.0   60.0   0.0
-500.0   60.0   16.666666666666668
-450.0   90.0   16.666666666666668
-450.0   60.0   0.0
-500.0   90.0   0.0
-500.0   60.0   16.666666666666668
-450.0   60.0   16.666666666666668
-500.0   90.0   16.666666666666668
-500.0   60.0   33.333333333333336
-450.0   60.0   16.666666666666668
-450.0   90.0   16.666666666666668
-500.0   90.0   16.666666666666668
-450.0   90.0   33.333333333333336
-500.0   60.0   33.333333333333336
-500.0   90.0   33.333333333333336
-450.0   90.0   33.333333333333336
-500.0   90.0   16.666666666666668
-500.0   60.0   33.333333333333336
-450.0   90.0   33.333333333333336
-450.0   60.0   33.333333333333336
-450.0   60.0   16.666666666666668
-500.0   60.0   33.333333333333336
-450.0   90.0   33.333333333333336
-450.0   60.0   16.666666666666668
-500.0   90.0   16.666666666666668
-500.0   60.0   33.333333333333336
-450.0   60.0   33.333333333333336
-500.0   90.0   33.333333333333336
-500.0   60.0   50.0
-450.0   60.0   33.333333333333336
-450.0   90.0   33.333333333333336
-500.0   90.0   33.333333333333336
-450.0   90.0   50.0
-500.0   60.0   50.0
-500.0   90.0   50.0
-450.0   90.0   50.0
-500.0   90.0   33.333333333333336
-500.0   60.0   50.0
-450.0   90.0   50.0
-450.0   60.0   50.0
-450.0   60.0   33.333333333333336
-500.0   60.0   50.0
-450.0   90.0   50.0
-450.0   60.0   33.333333333333336
-500.0   90.0   33.333333333333336
-500.0   90.0   0.0
-450.0   90.0   0.0
-500.0   120.0   0.0
-500.0   90.0   16.666666666666668
-450.0   90.0   0.0
-450.0   120.0   0.0
-500.0   120.0   0.0
-450.0   120.0   16.666666666666668
-500.0   90.0   16.666666666666668
-500.0   120.0   16.666666666666668
-450.0   120.0   16.666666666666668
-500.0   120.0   0.0
-500.0   90.0   16.666666666666668
-450.0   120.0   16.666666666666668
-450.0   90.0   16.666666666666668
-450.0   90.0   0.0
-500.0   90.0   16.666666666666668
-450.0   120.0   16.666666666666668
-450.0   90.0   0.0
-500.0   120.0   0.0
-500.0   90.0   16.666666666666668
-450.0   90.0   16.666666666666668
-500.0   120.0   16.666666666666668
-500.0   90.0   33.333333333333336
-450.0   90.0   16.666666666666668
-450.0   120.0   16.666666666666668
-500.0   120.0   16.666666666666668
-450.0   120.0   33.333333333333336
-500.0   90.0   33.333333333333336
-500.0   120.0   33.333333333333336
-450.0   120.0   33.333333333333336
-500.0   120.0   16.666666666666668
-500.0   90.0   33.333333333333336
-450.0   120.0   33.333333333333336
-450.0   90.0   33.333333333333336
-450.0   90.0   16.666666666666668
-500.0   90.0   33.333333333333336
-450.0   120.0   33.333333333333336
-450.0   90.0   16.666666666666668
-500.0   120.0   16.666666666666668
-500.0   90.0   33.333333333333336
-450.0   90.0   33.333333333333336
-500.0   120.0   33.333333333333336
-500.0   90.0   50.0
-450.0   90.0   33.333333333333336
-450.0   120.0   33.333333333333336
-500.0   120.0   33.333333333333336
-450.0   120.0   50.0
-500.0   90.0   50.0
-500.0   120.0   50.0
-450.0   120.0   50.0
-500.0   120.0   33.333333333333336
-500.0   90.0   50.0
-450.0   120.0   50.0
-450.0   90.0   50.0
-450.0   90.0   33.333333333333336
-500.0   90.0   50.0
-450.0   120.0   50.0
-450.0   90.0   33.333333333333336
-500.0   120.0   33.333333333333336
-500.0   120.0   0.0
-450.0   120.0   0.0
-500.0   150.0   0.0
-500.0   120.0   16.666666666666668
-450.0   120.0   0.0
-450.0   150.0   0.0
-500.0   150.0   0.0
-450.0   150.0   16.666666666666668
-500.0   120.0   16.666666666666668
-500.0   150.0   16.666666666666668
-450.0   150.0   16.666666666666668
-500.0   150.0   0.0
-500.0   120.0   16.666666666666668
-450.0   150.0   16.666666666666668
-450.0   120.0   16.666666666666668
-450.0   120.0   0.0
-500.0   120.0   16.666666666666668
-450.0   150.0   16.666666666666668
-450.0   120.0   0.0
-500.0   150.0   0.0
-500.0   120.0   16.666666666666668
-450.0   120.0   16.666666666666668
-500.0   150.0   16.666666666666668
-500.0   120.0   33.333333333333336
-450.0   120.0   16.666666666666668
-450.0   150.0   16.666666666666668
-500.0   150.0   16.666666666666668
-450.0   150.0   33.333333333333336
-500.0   120.0   33.333333333333336
-500.0   150.0   33.333333333333336
-450.0   150.0   33.333333333333336
-500.0   150.0   16.666666666666668
-500.0   120.0   33.333333333333336
-450.0   150.0   33.333333333333336
-450.0   120.0   33.333333333333336
-450.0   120.0   16.666666666666668
-500.0   120.0   33.333333333333336
-450.0   150.0   33.333333333333336
-450.0   120.0   16.666666666666668
-500.0   150.0   16.666666666666668
-500.0   120.0   33.333333333333336
-450.0   120.0   33.333333333333336
-500.0   150.0   33.333333333333336
-500.0   120.0   50.0
-450.0   120.0   33.333333333333336
-450.0   150.0   33.333333333333336
-500.0   150.0   33.333333333333336
-450.0   150.0   50.0
-500.0   120.0   50.0
-500.0   150.0   50.0
-450.0   150.0   50.0
-500.0   150.0   33.333333333333336
-500.0   120.0   50.0
-450.0   150.0   50.0
-450.0   120.0   50.0
-450.0   120.0   33.333333333333336
-500.0   120.0   50.0
-450.0   150.0   50.0
-450.0   120.0   33.333333333333336
-500.0   150.0   33.333333333333336
-450.0   0.0   0.0
-400.0   0.0   0.0
-450.0   30.0   0.0
-450.0   0.0   16.666666666666668
-400.0   0.0   0.0
-400.0   30.0   0.0
-450.0   30.0   0.0
-400.0   30.0   16.666666666666668
-450.0   0.0   16.666666666666668
-450.0   30.0   16.666666666666668
-400.0   30.0   16.666666666666668
-450.0   30.0   0.0
-450.0   0.0   16.666666666666668
-400.0   30.0   16.666666666666668
-400.0   0.0   16.666666666666668
-400.0   0.0   0.0
-450.0   0.0   16.666666666666668
-400.0   30.0   16.666666666666668
-400.0   0.0   0.0
-450.0   30.0   0.0
-450.0   0.0   16.666666666666668
-400.0   0.0   16.666666666666668
-450.0   30.0   16.666666666666668
[...]
          <PointData>  
             <DataArray type="Float64" NumberOfComponents="3" Name="Strains" format="ascii">   
-6.308032811912548e-05   0.0   -4.14868802866513e-05
-6.308032811912548e-05   0.0   -4.14868802866513e-05
-6.308032811912548e-05   0.0   -4.14868802866513e-05
-6.308032811912548e-05   0.0   -4.14868802866513e-05
-4.0130614229647664e-05   6.976526895806291e-06   9.485589999620877e-07
-4.0130614229647664e-05   6.976526895806291e-06   9.485589999620877e-07
-4.0130614229647664e-05   6.976526895806291e-06   9.485589999620877e-07
-4.0130614229647664e-05   6.976526895806291e-06   9.485589999620877e-07
-3.933111155235585e-05   0.0   -3.916690832647983e-05
-3.933111155235585e-05   0.0   -3.916690832647983e-05
-3.933111155235585e-05   0.0   -3.916690832647983e-05
-3.933111155235585e-05   0.0   -3.916690832647983e-05
-6.600931584814816e-05   8.377704899691587e-06   2.7014256002590013e-07
-6.600931584814816e-05   8.377704899691587e-06   2.7014256002590013e-07
-6.600931584814816e-05   8.377704899691587e-06   2.7014256002590013e-07
-6.600931584814816e-05   8.377704899691587e-06   2.7014256002590013e-07
-5.120571983574057e-05   1.933309966809554e-06   -2.053588050092415e-05
-5.120571983574057e-05   1.933309966809554e-06   -2.053588050092415e-05
-5.120571983574057e-05   1.933309966809554e-06   -2.053588050092415e-05
-5.120571983574057e-05   1.933309966809554e-06   -2.053588050092415e-05
-6.600931584814827e-05   0.0   -4.419353126629479e-05
-6.600931584814827e-05   0.0   -4.419353126629479e-05
-6.600931584814827e-05   0.0   -4.419353126629479e-05
-6.600931584814827e-05   0.0   -4.419353126629479e-05
-3.933111155235585e-05   8.3777048996916e-06   5.296765499840841e-06
-3.933111155235585e-05   8.3777048996916e-06   5.296765499840841e-06
-3.933111155235585e-05   8.3777048996916e-06   5.296765499840841e-06
-3.933111155235585e-05   8.3777048996916e-06   5.296765499840841e-06
-3.943570756197155e-05   0.0   -4.012387426150019e-05
-3.943570756197155e-05   0.0   -4.012387426150019e-05
-3.943570756197155e-05   0.0   -4.012387426150019e-05
-3.943570756197155e-05   0.0   -4.012387426150019e-05
-6.806341169408719e-05   8.97695060833275e-06   2.2027955936930617e-06
-6.806341169408719e-05   8.97695060833275e-06   2.2027955936930617e-06
-6.806341169408719e-05   8.97695060833275e-06   2.2027955936930617e-06
-6.806341169408719e-05   8.97695060833275e-06   2.2027955936930617e-06
-5.272251170505982e-05   3.391380837328831e-06   -2.0014029192083513e-05
-5.272251170505982e-05   3.391380837328831e-06   -2.0014029192083513e-05
-5.272251170505982e-05   3.391380837328831e-06   -2.0014029192083513e-05
-5.272251170505982e-05   3.391380837328831e-06   -2.0014029192083513e-05
-6.806341169408731e-05   0.0   -4.551004462649985e-05
-6.806341169408731e-05   0.0   -4.551004462649985e-05
-6.806341169408731e-05   0.0   -4.551004462649985e-05
-6.806341169408731e-05   0.0   -4.551004462649985e-05
-3.943570756197148e-05   8.97695060833275e-06   7.588965958692709e-06
-3.943570756197148e-05   8.97695060833275e-06   7.588965958692709e-06
-3.943570756197148e-05   8.97695060833275e-06   7.588965958692709e-06
-3.943570756197148e-05   8.97695060833275e-06   7.588965958692709e-06
-3.9407849596833136e-05   0.0   -4.0370773676895486e-05
-3.9407849596833136e-05   0.0   -4.0370773676895486e-05
-3.9407849596833136e-05   0.0   -4.0370773676895486e-05
-3.9407849596833136e-05   0.0   -4.0370773676895486e-05
-7.249477659330358e-05   1.0231278383703545e-05   8.635337620333317e-06
-7.249477659330358e-05   1.0231278383703545e-05   8.635337620333317e-06
-7.249477659330358e-05   1.0231278383703545e-05   8.635337620333317e-06
-7.249477659330358e-05   1.0231278383703545e-05   8.635337620333317e-06
-5.373563064546013e-05   4.282725791336974e-06   -1.906077407065247e-05
-5.373563064546013e-05   4.282725791336974e-06   -1.906077407065247e-05
-5.373563064546013e-05   4.282725791336974e-06   -1.906077407065247e-05
-5.373563064546013e-05   4.282725791336974e-06   -1.906077407065247e-05
-4.013061422964773e-05   0.0   -3.7300964149167526e-05
-4.013061422964773e-05   0.0   -3.7300964149167526e-05
-4.013061422964773e-05   0.0   -3.7300964149167526e-05
-4.013061422964773e-05   0.0   -3.7300964149167526e-05
-1.828301276676804e-05   2.5564845813159516e-06   6.455957044214987e-07
-1.828301276676804e-05   2.5564845813159516e-06   6.455957044214987e-07
-1.828301276676804e-05   2.5564845813159516e-06   6.455957044214987e-07
-1.828301276676804e-05   2.5564845813159516e-06   6.455957044214987e-07
-1.7578178744415218e-05   0.0   -3.6980837393195464e-05
-1.7578178744415218e-05   0.0   -3.6980837393195464e-05
-1.7578178744415218e-05   0.0   -3.6980837393195464e-05
-1.7578178744415218e-05   0.0   -3.6980837393195464e-05
-3.933111155235585e-05   3.643451555473845e-06   -2.9120203132454995e-06
-3.933111155235585e-05   3.643451555473845e-06   -2.9120203132454995e-06
-3.933111155235585e-05   3.643451555473845e-06   -2.9120203132454995e-06
-3.933111155235585e-05   3.643451555473845e-06   -2.9120203132454995e-06
-2.885439648703144e-05   2.6677229664333086e-07   -1.8347204533487748e-05
-2.885439648703144e-05   2.6677229664333086e-07   -1.8347204533487748e-05
-2.885439648703144e-05   2.6677229664333086e-07   -1.8347204533487748e-05
-2.885439648703144e-05   2.6677229664333086e-07   -1.8347204533487748e-05
-3.933111155235581e-05   0.0   -3.91669083264798e-05
-3.933111155235581e-05   0.0   -3.91669083264798e-05
-3.933111155235581e-05   0.0   -3.91669083264798e-05
-3.933111155235581e-05   0.0   -3.91669083264798e-05
-1.7578178744415218e-05   3.6434515554738316e-06   -7.259493799612094e-07
-1.7578178744415218e-05   3.6434515554738316e-06   -7.259493799612094e-07
-1.7578178744415218e-05   3.6434515554738316e-06   -7.259493799612094e-07
-1.7578178744415218e-05   3.6434515554738316e-06   -7.259493799612094e-07
-1.717973688379137e-05   0.0   -3.744373871674486e-05
-1.717973688379137e-05   0.0   -3.744373871674486e-05
-1.717973688379137e-05   0.0   -3.744373871674486e-05
-1.717973688379137e-05   0.0   -3.744373871674486e-05
-3.943570756197155e-05   4.466892574592112e-06   -3.0305897978666227e-06
-3.943570756197155e-05   4.466892574592112e-06   -3.0305897978666227e-06
-3.943570756197155e-05   4.466892574592112e-06   -3.0305897978666227e-06
-3.943570756197155e-05   4.466892574592112e-06   -3.0305897978666227e-06
-2.8255424218073568e-05   1.4359746747790938e-06   -1.9845844631141948e-05
-2.8255424218073568e-05   1.4359746747790938e-06   -1.9845844631141948e-05
-2.8255424218073568e-05   1.4359746747790938e-06   -1.9845844631141948e-05
-2.8255424218073568e-05   1.4359746747790938e-06   -1.9845844631141948e-05
-3.943570756197155e-05   0.0   -4.012387426150019e-05
-3.943570756197155e-05   0.0   -4.012387426150019e-05
-3.943570756197155e-05   0.0   -4.012387426150019e-05
-3.943570756197155e-05   0.0   -4.012387426150019e-05
-1.71797368837914e-05   4.466892574592112e-06   -3.5045425311134443e-07
-1.71797368837914e-05   4.466892574592112e-06   -3.5045425311134443e-07
-1.71797368837914e-05   4.466892574592112e-06   -3.5045425311134443e-07
-1.71797368837914e-05   4.466892574592112e-06   -3.5045425311134443e-07
-1.6815879558097014e-05   0.0   -3.7251223046290374e-05
-1.6815879558097014e-05   0.0   -3.7251223046290374e-05
-1.6815879558097014e-05   0.0   -3.7251223046290374e-05
-1.6815879558097014e-05   0.0   -3.7251223046290374e-05
-3.94078495968331e-05   5.199251051008475e-06   -2.7174902790019615e-06
-3.94078495968331e-05   5.199251051008475e-06   -2.7174902790019615e-06
-3.94078495968331e-05   5.199251051008475e-06   -2.7174902790019615e-06
-3.94078495968331e-05   5.199251051008475e-06   -2.7174902790019615e-06
-2.8125793560034273e-05   2.3938760126748234e-06   -1.9837691983999835e-05
-2.8125793560034273e-05   2.3938760126748234e-06   -1.9837691983999835e-05
-2.8125793560034273e-05   2.3938760126748234e-06   -1.9837691983999835e-05
-2.8125793560034273e-05   2.3938760126748234e-06   -1.9837691983999835e-05
-1.8283012766768075e-05   0.0   -3.576707340037795e-05
-1.8283012766768075e-05   0.0   -3.576707340037795e-05
-1.8283012766768075e-05   0.0   -3.576707340037795e-05
-1.8283012766768075e-05   0.0   -3.576707340037795e-05
2.3534611341189834e-06   -3.2920251855939346e-07   -1.5704717433684603e-06
2.3534611341189834e-06   -3.2920251855939346e-07   -1.5704717433684603e-06
2.3534611341189834e-06   -3.2920251855939346e-07   -1.5704717433684603e-06
2.3534611341189834e-06   -3.2920251855939346e-07   -1.5704717433684603e-06
2.806287373369737e-06   0.0   -3.659283592382644e-05
2.806287373369737e-06   0.0   -3.659283592382644e-05
2.806287373369737e-06   0.0   -3.659283592382644e-05
2.806287373369737e-06   0.0   -3.659283592382644e-05
-1.7578178744415218e-05   6.466691156149459e-07   -3.0067271968871945e-06
-1.7578178744415218e-05   6.466691156149459e-07   -3.0067271968871945e-06
-1.7578178744415218e-05   6.466691156149459e-07   -3.0067271968871945e-06
-1.7578178744415218e-05   6.466691156149459e-07   -3.0067271968871945e-06
-7.738362696699149e-06   -6.881354362071754e-07   -1.860553787865403e-05
-7.738362696699149e-06   -6.881354362071754e-07   -1.860553787865403e-05
-7.738362696699149e-06   -6.881354362071754e-07   -1.860553787865403e-05
-7.738362696699149e-06   -6.881354362071754e-07   -1.860553787865403e-05
-1.7578178744415248e-05   0.0   -3.698083739319553e-05
-1.7578178744415248e-05   0.0   -3.698083739319553e-05
-1.7578178744415248e-05   0.0   -3.698083739319553e-05
-1.7578178744415248e-05   0.0   -3.698083739319553e-05
2.806287373369742e-06   6.466691156149459e-07   -2.618725727518234e-06
2.806287373369742e-06   6.466691156149459e-07   -2.618725727518234e-06
2.806287373369742e-06   6.466691156149459e-07   -2.618725727518234e-06
2.806287373369742e-06   6.466691156149459e-07   -2.618725727518234e-06
3.164522506273393e-06   0.0   -3.6539998659224676e-05
3.164522506273393e-06   0.0   -3.6539998659224676e-05
3.164522506273393e-06   0.0   -3.6539998659224676e-05
3.164522506273393e-06   0.0   -3.6539998659224676e-05
-1.7179736883791344e-05   1.5062334292003014e-06   -3.5366397333035844e-06
-1.7179736883791344e-05   1.5062334292003014e-06   -3.5366397333035844e-06
-1.7179736883791344e-05   1.5062334292003014e-06   -3.5366397333035844e-06
-1.7179736883791344e-05   1.5062334292003014e-06   -3.5366397333035844e-06
-7.206828119070912e-06   3.6736561164232197e-07   -1.9474833650636214e-05
-7.206828119070912e-06   3.6736561164232197e-07   -1.9474833650636214e-05
-7.206828119070912e-06   3.6736561164232197e-07   -1.9474833650636214e-05
-7.206828119070912e-06   3.6736561164232197e-07   -1.9474833650636214e-05
-1.71797368837914e-05   0.0   -3.744373871674492e-05
-1.71797368837914e-05   0.0   -3.744373871674492e-05
-1.71797368837914e-05   0.0   -3.744373871674492e-05
-1.71797368837914e-05   0.0   -3.744373871674492e-05
3.1645225062733986e-06   1.5062334292003082e-06   -2.6328996757834144e-06
3.1645225062733986e-06   1.5062334292003082e-06   -2.6328996757834144e-06
3.1645225062733986e-06   1.5062334292003082e-06   -2.6328996757834144e-06
3.1645225062733986e-06   1.5062334292003082e-06   -2.6328996757834144e-06
3.644430071416126e-06   0.0   -3.575035188804093e-05
3.644430071416126e-06   0.0   -3.575035188804093e-05
3.644430071416126e-06   0.0   -3.575035188804093e-05
3.644430071416126e-06   0.0   -3.575035188804093e-05
-1.6815879558097e-05   2.5014519304156658e-06   -3.150706997101805e-06
-1.6815879558097e-05   2.5014519304156658e-06   -3.150706997101805e-06
-1.6815879558097e-05   2.5014519304156658e-06   -3.150706997101805e-06
-1.6815879558097e-05   2.5014519304156658e-06   -3.150706997101805e-06
-6.767653406187622e-06   1.4111556905866035e-06   -1.9243572839719966e-05
-6.767653406187622e-06   1.4111556905866035e-06   -1.9243572839719966e-05
-6.767653406187622e-06   1.4111556905866035e-06   -1.9243572839719966e-05
-6.767653406187622e-06   1.4111556905866035e-06   -1.9243572839719966e-05
2.3534611341189876e-06   0.0   -3.596459491151359e-05
2.3534611341189876e-06   0.0   -3.596459491151359e-05
2.3534611341189876e-06   0.0   -3.596459491151359e-05
2.3534611341189876e-06   0.0   -3.596459491151359e-05
2.4759422192732646e-05   -2.9040606531766184e-06   -3.6376287239676697e-07
2.4759422192732646e-05   -2.9040606531766184e-06   -3.6376287239676697e-07
2.4759422192732646e-05   -2.9040606531766184e-06   -3.6376287239676697e-07
2.4759422192732646e-05   -2.9040606531766184e-06   -3.6376287239676697e-07
2.4811015237053772e-05   0.0   -3.79053327357456e-05
2.4811015237053772e-05   0.0   -3.79053327357456e-05
2.4811015237053772e-05   0.0   -3.79053327357456e-05
2.4811015237053772e-05   0.0   -3.79053327357456e-05
2.8062873733697468e-06   -2.1874946865317192e-06   8.171051564680846e-08
2.8062873733697468e-06   -2.1874946865317192e-06   8.171051564680846e-08
2.8062873733697468e-06   -2.1874946865317192e-06   8.171051564680846e-08
2.8062873733697468e-06   -2.1874946865317192e-06   8.171051564680846e-08
1.358223818558638e-05   -1.6172815201933383e-06   -1.822033540451726e-05
1.358223818558638e-05   -1.6172815201933383e-06   -1.822033540451726e-05
1.358223818558638e-05   -1.6172815201933383e-06   -1.822033540451726e-05
1.358223818558638e-05   -1.6172815201933383e-06   -1.822033540451726e-05
2.8062873733697468e-06   0.0   -3.659283592382656e-05
2.8062873733697468e-06   0.0   -3.659283592382656e-05
2.8062873733697468e-06   0.0   -3.659283592382656e-05
2.8062873733697468e-06   0.0   -3.659283592382656e-05
2.4811015237053772e-05   -2.1874946865317192e-06   -1.2307862962722266e-06
2.4811015237053772e-05   -2.1874946865317192e-06   -1.2307862962722266e-06
2.4811015237053772e-05   -2.1874946865317192e-06   -1.2307862962722266e-06
2.4811015237053772e-05   -2.1874946865317192e-06   -1.2307862962722266e-06
2.471127403164002e-05   0.0   -3.736411310441995e-05
2.471127403164002e-05   0.0   -3.736411310441995e-05
2.471127403164002e-05   0.0   -3.736411310441995e-05
2.471127403164002e-05   0.0   -3.736411310441995e-05
3.1645225062733986e-06   -1.3735240753253613e-06   -6.287461169470493e-07
3.1645225062733986e-06   -1.3735240753253613e-06   -6.287461169470493e-07
3.1645225062733986e-06   -1.3735240753253613e-06   -6.287461169470493e-07
3.1645225062733986e-06   -1.3735240753253613e-06   -6.287461169470493e-07
1.3758780702504882e-05   -6.427309838278282e-07   -1.8724318965564684e-05
1.3758780702504882e-05   -6.427309838278282e-07   -1.8724318965564684e-05
1.3758780702504882e-05   -6.427309838278282e-07   -1.8724318965564684e-05
1.3758780702504882e-05   -6.427309838278282e-07   -1.8724318965564684e-05
3.1645225062733956e-06   0.0   -3.653999865922471e-05
3.1645225062733956e-06   0.0   -3.653999865922471e-05
3.1645225062733956e-06   0.0   -3.653999865922471e-05
3.1645225062733956e-06   0.0   -3.653999865922471e-05
2.471127403164002e-05   -1.3735240753253613e-06   -1.4528605621422566e-06
2.471127403164002e-05   -1.3735240753253613e-06   -1.4528605621422566e-06
2.471127403164002e-05   -1.3735240753253613e-06   -1.4528605621422566e-06
2.471127403164002e-05   -1.3735240753253613e-06   -1.4528605621422566e-06
2.519612265091337e-05   0.0   -3.591842789839735e-05
2.519612265091337e-05   0.0   -3.591842789839735e-05
2.519612265091337e-05   0.0   -3.591842789839735e-05
2.519612265091337e-05   0.0   -3.591842789839735e-05
3.644430071416132e-06   -2.801266839272618e-07   1.6913574445439152e-07
3.644430071416132e-06   -2.801266839272618e-07   1.6913574445439152e-07
3.644430071416132e-06   -2.801266839272618e-07   1.6913574445439152e-07
3.644430071416132e-06   -2.801266839272618e-07   1.6913574445439152e-07
1.4180322578593374e-05   5.179756340228253e-07   -1.7869546491611046e-05
1.4180322578593374e-05   5.179756340228253e-07   -1.7869546491611046e-05
1.4180322578593374e-05   5.179756340228253e-07   -1.7869546491611046e-05
1.4180322578593374e-05   5.179756340228253e-07   -1.7869546491611046e-05
2.4759422192732646e-05   0.0   -3.7707031303419556e-05
2.4759422192732646e-05   0.0   -3.7707031303419556e-05
2.4759422192732646e-05   0.0   -3.7707031303419556e-05
2.4759422192732646e-05   0.0   -3.7707031303419556e-05
5.593793887633435e-05   -7.366870710387305e-06   9.837040743017867e-06
5.593793887633435e-05   -7.366870710387305e-06   9.837040743017867e-06
5.593793887633435e-05   -7.366870710387305e-06   9.837040743017867e-06
5.593793887633435e-05   -7.366870710387305e-06   9.837040743017867e-06
5.254458028625947e-05   0.0   -4.16637556631998e-05
5.254458028625947e-05   0.0   -4.16637556631998e-05
5.254458028625947e-05   0.0   -4.16637556631998e-05
5.254458028625947e-05   0.0   -4.16637556631998e-05
2.4811015237053772e-05   -6.264038212423656e-06   8.317275679597214e-06
2.4811015237053772e-05   -6.264038212423656e-06   8.317275679597214e-06
2.4811015237053772e-05   -6.264038212423656e-06   8.317275679597214e-06
2.4811015237053772e-05   -6.264038212423656e-06   8.317275679597214e-06
3.8652001239496057e-05   -3.297270299816864e-06   -1.6531095072037307e-05
3.8652001239496057e-05   -3.297270299816864e-06   -1.6531095072037307e-05
3.8652001239496057e-05   -3.297270299816864e-06   -1.6531095072037307e-05
3.8652001239496057e-05   -3.297270299816864e-06   -1.6531095072037307e-05
2.481101523705375e-05   0.0   -3.790533273574556e-05
2.481101523705375e-05   0.0   -3.790533273574556e-05
2.481101523705375e-05   0.0   -3.790533273574556e-05
2.481101523705375e-05   0.0   -3.790533273574556e-05
5.254458028625929e-05   -6.2640382124236425e-06   4.558852752143007e-06
5.254458028625929e-05   -6.2640382124236425e-06   4.558852752143007e-06
5.254458028625929e-05   -6.2640382124236425e-06   4.558852752143007e-06
5.254458028625929e-05   -6.2640382124236425e-06   4.558852752143007e-06
5.0982712326478924e-05   0.0   -4.079761486280789e-05
5.0982712326478924e-05   0.0   -4.079761486280789e-05
5.0982712326478924e-05   0.0   -4.079761486280789e-05
5.0982712326478924e-05   0.0   -4.079761486280789e-05
2.471127403164002e-05   -5.7225029306465615e-06   6.421617386978209e-06
2.471127403164002e-05   -5.7225029306465615e-06   6.421617386978209e-06
2.471127403164002e-05   -5.7225029306465615e-06   6.421617386978209e-06
2.471127403164002e-05   -5.7225029306465615e-06   6.421617386978209e-06
3.7896863781766326e-05   -2.4102351058852528e-06   -1.7541726224755747e-05
3.7896863781766326e-05   -2.4102351058852528e-06   -1.7541726224755747e-05
3.7896863781766326e-05   -2.4102351058852528e-06   -1.7541726224755747e-05
3.7896863781766326e-05   -2.4102351058852528e-06   -1.7541726224755747e-05
2.471127403164002e-05   0.0   -3.736411310441995e-05
2.471127403164002e-05   0.0   -3.736411310441995e-05
2.471127403164002e-05   0.0   -3.736411310441995e-05
2.471127403164002e-05   0.0   -3.736411310441995e-05
5.098271232647875e-05   -5.722502930646548e-06   2.988115628590259e-06
5.098271232647875e-05   -5.722502930646548e-06   2.988115628590259e-06
5.098271232647875e-05   -5.722502930646548e-06   2.988115628590259e-06
5.098271232647875e-05   -5.722502930646548e-06   2.988115628590259e-06
4.865297260384757e-05   0.0   -3.858420972337303e-05
4.865297260384757e-05   0.0   -3.858420972337303e-05
4.865297260384757e-05   0.0   -3.858420972337303e-05
4.865297260384757e-05   0.0   -3.858420972337303e-05
2.519612265091333e-05   -4.442969708292786e-06   3.1763220231596483e-06
2.519612265091333e-05   -4.442969708292786e-06   3.1763220231596483e-06
2.519612265091333e-05   -4.442969708292786e-06   3.1763220231596483e-06
2.519612265091333e-05   -4.442969708292786e-06   3.1763220231596483e-06
3.668212331774379e-05   -1.0167471824608937e-06   -1.802274593705684e-05
3.668212331774379e-05   -1.0167471824608937e-06   -1.802274593705684e-05
3.668212331774379e-05   -1.0167471824608937e-06   -1.802274593705684e-05
3.668212331774379e-05   -1.0167471824608937e-06   -1.802274593705684e-05
-5.466663259667213e-05   6.976526895806278e-06   -3.592633094148597e-05
-5.466663259667213e-05   6.976526895806278e-06   -3.592633094148597e-05
-5.466663259667213e-05   6.976526895806278e-06   -3.592633094148597e-05
-5.466663259667213e-05   6.976526895806278e-06   -3.592633094148597e-05