<?xml version="1.0"?> 
<VTKFile type="UnstructuredGrid"> 
   <UnstructuredGrid> 
      <Piece NumberOfPoints="6000"  NumberOfCells="1500">  
          <Points>  
             <DataArray type="Float64" NumberOfComponents="3" format="ascii">   
-500.0   0.0   0.0
-450.0   0.0   0.0
-500.0   30.0   0.0
-500.0   0.0   16.666666666666668
-450.0   0.0   0.0
-450.0   30.0   0.0
-500.0   30.0   0.0
-450.0   30.0   16.666666666666668
-500.0   0.0   16.666666666666668
-500.0   30.0   16.666666666666668
-450.0   30.0   16.666666666666668
-500.0   30.0   0.0
-500.0   0.0   16.666666666666668
-450.0   30.0   16.666666666666668
-450.0   0.0   16.666666666666668
-450.0   0.0   0.0
-500.0   0.0   16.666666666666668
-450.0   30.0   16.666666666666668
-450.0   0.0   0.0
-500.0   30.0   0.0
-500.0   0.0   16.666666666666668
-450.0   0.0   16.666666666666668
-500.0   30.0   16.666666666666668
-500.0   0.0   33.333333333333336
-450.0   0.0   16.666666666666668
-450.0   30.0   16.666666666666668
-500.0   30.0   16.666666666666668
-450.0   30.0   33.333333333333336
-500.0   0.0   33.333333333333336
-500.0   30.0   33.333333333333336
-450.0   30.0   33.333333333333336
-500.0   30.0   16.666666666666668
-500.0   0.0   33.333333333333336
-450.0   30.0   33.333333333333336
-450.0   0.0   33.333333333333336
-450.0   0.0   16.666666666666668
-500.0   0.0   33.333333333333336
-450.0   30.0   33.333333333333336
-450.0   0.0   16.666666666666668
-500.0   30.0   16.666666666666668
-500.0   0.0   33.333333333333336
-450.0   0.0   33.333333333333336
-500.0   30.0   33.333333333333336
-500.0   0.0   50.0
-450.0   0.0   33.333333333333336
-450.0   30.0   33.333333333333336
-500.0   30.0   33.333333333333336
-450.0   30.0   50.0
-500.0   0.0   50.0
-500.0   30.0   50.0
-450.0   30.0   50.0
-500.0   30.0   33.333333333333336
-500.0   0.0   50.0
-450.0   30.0   50.0
-450.0   0.0   50.0
-450.0   0.0   33.333333333333336
-500.0   0.0   50.0
-450.0   30.0   50.0
-450.0   0.0   33.333333333333336
-500.0   30.0   33.333333333333336
-500.0   30.0   0.0
-450.0   30.0   0.0
-500.0   60.0   0.0
-500.0   30.0   16.666666666666668
-450.0   30.0   0.0
-450.0   60.0   0.0
-500.0   60.0   0.0
-450.0   60.0   16.666666666666668
-500.0   30.0   16.666666666666668
-500.0   60.0   16.666666666666668
-450.0   60.0   16.666666666666668
-500.0   60.0   0.0
-500.0   30.0   16.666666666666668
-450.0   60.0   16.666666666666668
-450.0   30.0   16.666666666666668
-450.0   30.0   0.0
-500.0   30.0   16.666666666666668
-450.0   60.0   16.666666666666668
-450.0   30.0   0.0
-500.0   60.0   0.0
-500.0   30.0   16.666666666666668
-450.0   30.0   16.666666666666668
-500.0   60.0   16.666666666666668
-500.0   30.0   33.333333333333336
-450.0   30.0   16.666666666666668
-450.0   60.0   16.666666666666668
-500.0   60.0   16.666666666666668
-450.0   60.0   33.333333333333336
-500.0   30.0   33.333333333333336
-500.0   60.0   33.333333333333336
-450.0   60.0   33.333333333333336
-500.0   60.0   16.666666666666668
-500.0   30.0   33.333333333333336
-450.0   60.0   33.333333333333336
-450.0   30.0   33.333333333333336
-450.0   30.0   16.666666666666668
-500.0   30.0   33.333333333333336
-450.0   60.0   33.333333333333336
-450.0   30.0   16.666666666666668
-500.0   60.0   16.666666666666668
-500.0   30.0   33.333333333333336
-450.0   30.0   33.333333333333336
-500.0   60.0   33.333333333333336
-500.0   30.0   50.0
-450.0   30.0   33.333333333333336
-450.0   60.0   33.333333333333336
-500.0   60.0   33.333333333333336
-450.0   60.0   50.0
-500.0   30.0   50.0
-500.0   60.0   50.0
-450.0   60.0   50.0
-500.0   60.0   33.333333333333336
-500.0   30.0   50.0
-450.0   60.0   50.0
-450.0   30.0   50.0
-450.0   30.0   33.333333333333336
-500.0   30.0   50.0
-450.0   60.0   50.0
-450.0   30.0   33.333333333333336
-500.0   60.0   33.333333333333336
-500.0   60.0   0.0
-450.0   60.0   0.0
-500.0   90.0   0.0
-500.0   60.0   16.666666666666668
-450.0   60.0   0.0
-450.0   90.0   0.0
-500.0   90.0   0.0
-450.0   90.0   16.666666666666668
-500.0   60.0   16.666666666666668
-500.0   90.0   16.666666666666668
-450.0   90.0   16.666666666666668
-500.0   90.0   0.0
-500.0   60.0   16.666666666666668
-450.0   90.0   16.666666666666668
-450.0   60.0   16.666666666666668
-450.0   60.0   0.0
-500.0   60.0   16.666666666666668
-450.0   90.0   16.666666666666668
-450.0   60.0   0.0
-500.0   90.0   0.0
-500.0   60.0   16.666666666666668
-450.0   60.0   16.666666666666668
-500.0   90.0   16.666666666666668
-500.0   60.0   33.333333333333336
-450.0   60.0   16.666666666666668
-450.0   90.0   16.666666666666668
-500.0   90.0   16.666666666666668
-450.0   90.0   33.333333333333336
-500.0   60.0   33.333333333333336
-500.0   90.0   33.333333333333336
-450.0   90.0   33.333333333333336
-500.0   90.0   16.666666666666668
-500.0   60.0   33.333333333333336
-450.0   90.0   33.333333333333336
-450.0   60.0   33.333333333333336
-450.0   60.0   16.666666666666668
-500.0   60.0   33.333333333333336
-450.0   90.0   33.333333333333336
-450.0   60.0   16.666666666666668
-500.0   90.0   16.666666666666668
-500.0   60.0   33.333333333333336
-450.0   60.0   33.333333333333336
-500.0   90.0   33.333333333333336
-500.0   60.0   50.0
-450.0   60.0   33.333333333333336
-450.0   90.0   33.333333333333336
-500.0   90.0   33.333333333333336
-450.0   90.0   50.0
-500.0   60.0   50.0
-500.0   90.0   50.0
-450.0   90.0   50.0
-500.0   90.0   33.333333333333336
-500.0   60.0   50.0
-450.0   90.0   50.0
-450.0   60.0   50.0
-450.0   60.0   33.333333333333336
-500.0   60.0   50.0
-450.0   90.0   50.0
-450.0   60.0   33.333333333333336
-500.0   90.0   33.333333333333336
-500.0   90.0   0.0
-450.0   90.0   0.0
-500.0   120.0   0.0
-500.0   90.0   16.666666666666668
-450.0   90.0   0.0
-450.0   120.0   0.0
-500.0   120.0   0.0
-450.0   120.0   16.666666666666668
-500.0   90.0   16.666666666666668
-500.0   120.0   16.666666666666668
-450.0   120.0   16.666666666666668
-500.0   120.0   0.0
-500.0   90.0   16.666666666666668
-450.0   120.0   16.666666666666668
-450.0   90.0   16.666666666666668
-450.0   90.0   0.0
-500.0   90.0   16.666666666666668
-450.0   120.0   16.666666666666668
-450.0   90.0   0.0
-500.0   120.0   0.0
-500.0   90.0   16.666666666666668
-450.0   90.0   16.666666666666668
-500.0   120.0   16.666666666666668
-500.0   90.0   33.333333333333336
-450.0   90.0   16.666666666666668
-450.0   120.0   16.666666666666668
-500.0   120.0   16.666666666666668
-450.0   120.0   33.333333333333336
-500.0   90.0   33.333333333333336
-500.0   120.0   33.333333333333336
-450.0   120.0   33.333333333333336
-500.0   120.0   16.666666666666668
-500.0   90.0   33.333333333333336
-450.0   120.0   33.333333333333336
-450.0   90.0   33.333333333333336
-450.0   90.0   16.666666666666668
-500.0   90.0   33.333333333333336
-450.0   120.0   33.333333333333336
-450.0   90.0   16.666666666666668
-500.0   120.0   16.666666666666668
-500.0   90.0   33.333333333333336
-450.0   90.0   33.333333333333336
-500.0   120.0   33.333333333333336
-500.0   90.0   50.0
-450.0   90.0   33.333333333333336
-450.0   120.0   33.333333333333336
-500.0   120.0   33.333333333333336
-450.0   120.0   50.0
-500.0   90.0   50.0
-500.0   120.0   50.0
-450.0   120.0   50.0
-500.0   120.0   33.333333333333336
-500.0   90.0   50.0
-450.0   120.0   50.0
-450.0   90.0   50.0
-450.0   90.0   33.333333333333336
-500.0   90.0   50.0
-450.0   120.0   50.0
-450.0   90.0   33.333333333333336
-500.0   120.0   33.333333333333336
-500.0   120.0   0.0
-450.0   120.0   0.0
-500.0   150.0   0.0
-500.0   120.0   16.666666666666668
-450.0   120.0   0.0
-450.0   150.0   0.0
-500.0   150.0   0.0
-450.0   150.0   16.666666666666668
-500.0   120.0   16.666666666666668
-500.0   150.0   16.666666666666668
-450.0   150.0   16.666666666666668
-500.0   150.0   0.0
-500.0   120.0   16.666666666666668
-450.0   150.0   16.666666666666668
-450.0   120.0   16.666666666666668
-450.0   120.0   0.0
-500.0   120.0   16.666666666666668
-450.0   150.0   16.666666666666668
-450.0   120.0   0.0
-500.0   150.0   0.0
-500.0   120.0   16.666666666666668
-450.0   120.0   16.666666666666668
-500.0   150.0   16.666666666666668
-500.0   120.0   33.333333333333336
-450.0   120.0   16.666666666666668
-450.0   150.0   16.666666666666668
-500.0   150.0   16.666666666666668
-450.0   150.0   33.333333333333336
-500.0   120.0   33.333333333333336
-500.0   150.0   33.333333333333336
-450.0   150.0   33.333333333333336
-500.0   150.0   16.666666666666668
-500.0   120.0   33.333333333333336
-450.0   150.0   33.333333333333336
-450.0   120.0   33.333333333333336
-450.0   120.0   16.666666666666668
-500.0   120.0   33.333333333333336
-450.0   150.0   33.333333333333336
-450.0   120.0   16.666666666666668
-500.0   150.0   16.666666666666668
-500.0   120.0   33.333333333333336
-450.0   120.0   33.333333333333336
-500.0   150.0   33.333333333333336
-500.0   120.0   50.0
-450.0   120.0   33.333333333333336
-450.0   150.0   33.333333333333336
-500.0   150.0   33.333333333333336
-450.0   150.0   50.0
-500.0   120.0   50.0
-500.0   150.0   50.0
-450.0   150.0   50.0
-500.0   150.0   33.333333333333336
-500.0   120.0   50.0
-450.0   150.0   50.0
-450.0   120.0   50.0
-450.0   120.0   33.333333333333336
-500.0   120.0   50.0
-450.0   150.0   50.0
-450.0   120.0   33.333333333333336
-500.0   150.0   33.333333333333336
-450.0   0.0   0.0
-400.0   0.0   0.0
-450.0   30.0   0.0
-450.0   0.0   16.666666666666668
-400.0   0.0   0.0
-400.0   30.0   0.0
-450.0   30.0   0.0
-400.0   30.0   16.666666666666668
-450.0   0.0   16.666666666666668
-450.0   30.0   16.666666666666668
-400.0   30.0   16.666666666666668
-450.0   30.0   0.0
-450.0   0.0   16.666666666666668
-400.0   30.0   16.666666666666668
-400.0   0.0   16.666666666666668
-400.0   0.0   0.0
-450.0   0.0   16.666666666666668
-400.0   30.0   16.666666666666668
-400.0   0.0   0.0
-450.0   30.0   0.0
-450.0   0.0   16.666666666666668
-400.0   0.0   16.666666666666668
-450.0   30.0   16.666666666666668
[...]
          <PointData>  
             <DataArray type="Float64" NumberOfComponents="3" Name="Strains" format="ascii">   
-5.056313829227466e-05   0.0   -3.3306510373249464e-05
-5.056313829227466e-05   0.0   -3.3306510373249464e-05
-5.056313829227466e-05   0.0   -3.3306510373249464e-05
-5.056313829227466e-05   0.0   -3.3306510373249464e-05
-3.216225291142114e-05   5.585260096377583e-06   7.1278798599956e-07
-3.216225291142114e-05   5.585260096377583e-06   7.1278798599956e-07
-3.216225291142114e-05   5.585260096377583e-06   7.1278798599956e-07
-3.216225291142114e-05   5.585260096377583e-06   7.1278798599956e-07
-3.151794217797805e-05   0.0   -3.145082094114796e-05
-3.151794217797805e-05   0.0   -3.145082094114796e-05
-3.151794217797805e-05   0.0   -3.145082094114796e-05
-3.151794217797805e-05   0.0   -3.145082094114796e-05
-5.290652083237596e-05   6.710309663165229e-06   1.7062435161623133e-07
-5.290652083237596e-05   6.710309663165229e-06   1.7062435161623133e-07
-5.290652083237596e-05   6.710309663165229e-06   1.7062435161623133e-07
-5.290652083237596e-05   6.710309663165229e-06   1.7062435161623133e-07
-4.104054023512628e-05   1.546407860084585e-06   -1.6507668895284823e-05
-4.104054023512628e-05   1.546407860084585e-06   -1.6507668895284823e-05
-4.104054023512628e-05   1.546407860084585e-06   -1.6507668895284823e-05
-4.104054023512628e-05   1.546407860084585e-06   -1.6507668895284823e-05
-5.2906520832376045e-05   0.0   -3.54770067390471e-05
-5.2906520832376045e-05   0.0   -3.54770067390471e-05
-5.2906520832376045e-05   0.0   -3.54770067390471e-05
-5.2906520832376045e-05   0.0   -3.54770067390471e-05
-3.151794217797805e-05   6.710309663165236e-06   4.196810149515363e-06
-3.151794217797805e-05   6.710309663165236e-06   4.196810149515363e-06
-3.151794217797805e-05   6.710309663165236e-06   4.196810149515363e-06
-3.151794217797805e-05   6.710309663165236e-06   4.196810149515363e-06
-3.159791231177974e-05   0.0   -3.2218226675339695e-05
-3.159791231177974e-05   0.0   -3.2218226675339695e-05
-3.159791231177974e-05   0.0   -3.2218226675339695e-05
-3.159791231177974e-05   0.0   -3.2218226675339695e-05
-5.454816225219059e-05   7.19118607805568e-06   1.7174782451784553e-06
-5.454816225219059e-05   7.19118607805568e-06   1.7174782451784553e-06
-5.454816225219059e-05   7.19118607805568e-06   1.7174782451784553e-06
-5.454816225219059e-05   7.19118607805568e-06   1.7174782451784553e-06
-4.225221657207782e-05   2.7156500530895027e-06   -1.609044294002977e-05
-4.225221657207782e-05   2.7156500530895027e-06   -1.609044294002977e-05
-4.225221657207782e-05   2.7156500530895027e-06   -1.609044294002977e-05
-4.225221657207782e-05   2.7156500530895027e-06   -1.609044294002977e-05
-5.454816225219069e-05   0.0   -3.653293832217311e-05
-5.454816225219069e-05   0.0   -3.653293832217311e-05
-5.454816225219069e-05   0.0   -3.653293832217311e-05
-5.454816225219069e-05   0.0   -3.653293832217311e-05
-3.1597912311779686e-05   7.19118607805568e-06   6.0321898920118566e-06
-3.1597912311779686e-05   7.19118607805568e-06   6.0321898920118566e-06
-3.1597912311779686e-05   7.19118607805568e-06   6.0321898920118566e-06
-3.1597912311779686e-05   7.19118607805568e-06   6.0321898920118566e-06
-3.15712528834186e-05   0.0   -3.241682530889788e-05
-3.15712528834186e-05   0.0   -3.241682530889788e-05
-3.15712528834186e-05   0.0   -3.241682530889788e-05
-3.15712528834186e-05   0.0   -3.241682530889788e-05
-5.809355832668293e-05   8.198794460607271e-06   6.867740420178457e-06
-5.809355832668293e-05   8.198794460607271e-06   6.867740420178457e-06
-5.809355832668293e-05   8.198794460607271e-06   6.867740420178457e-06
-5.809355832668293e-05   8.198794460607271e-06   6.867740420178457e-06
-4.305970756780457e-05   3.430094177729352e-06   -1.5327457341558712e-05
-4.305970756780457e-05   3.430094177729352e-06   -1.5327457341558712e-05
-4.305970756780457e-05   3.430094177729352e-06   -1.5327457341558712e-05
-4.305970756780457e-05   3.430094177729352e-06   -1.5327457341558712e-05
-3.216225291142119e-05   0.0   -2.995535431542291e-05
-3.216225291142119e-05   0.0   -2.995535431542291e-05
-3.216225291142119e-05   0.0   -2.995535431542291e-05
-3.216225291142119e-05   0.0   -2.995535431542291e-05
-1.4657174646692979e-05   2.0453346625801916e-06   4.4697692333887115e-07
-1.4657174646692979e-05   2.0453346625801916e-06   4.4697692333887115e-07
-1.4657174646692979e-05   2.0453346625801916e-06   4.4697692333887115e-07
-1.4657174646692979e-05   2.0453346625801916e-06   4.4697692333887115e-07
-1.4088373301639935e-05   0.0   -2.970047184403618e-05
-1.4088373301639935e-05   0.0   -2.970047184403618e-05
-1.4088373301639935e-05   0.0   -2.970047184403618e-05
-1.4088373301639935e-05   0.0   -2.970047184403618e-05
-3.151794217797805e-05   2.917248495186206e-06   -2.4015394805844856e-06
-3.151794217797805e-05   2.917248495186206e-06   -2.4015394805844856e-06
-3.151794217797805e-05   2.917248495186206e-06   -2.4015394805844856e-06
-3.151794217797805e-05   2.917248495186206e-06   -2.4015394805844856e-06
-2.3125313106530537e-05   2.1240205948889622e-07   -1.4766346738245177e-05
-2.3125313106530537e-05   2.1240205948889622e-07   -1.4766346738245177e-05
-2.3125313106530537e-05   2.1240205948889622e-07   -1.4766346738245177e-05
-2.3125313106530537e-05   2.1240205948889622e-07   -1.4766346738245177e-05
-3.151794217797802e-05   0.0   -3.145082094114793e-05
-3.151794217797802e-05   0.0   -3.145082094114793e-05
-3.151794217797802e-05   0.0   -3.145082094114793e-05
-3.151794217797802e-05   0.0   -3.145082094114793e-05
-1.4088373301639935e-05   2.917248495186199e-06   -6.511903834727581e-07
-1.4088373301639935e-05   2.917248495186199e-06   -6.511903834727581e-07
-1.4088373301639935e-05   2.917248495186199e-06   -6.511903834727581e-07
-1.4088373301639935e-05   2.917248495186199e-06   -6.511903834727581e-07
-1.3765272299990029e-05   0.0   -3.0071449042220424e-05
-1.3765272299990029e-05   0.0   -3.0071449042220424e-05
-1.3765272299990029e-05   0.0   -3.0071449042220424e-05
-1.3765272299990029e-05   0.0   -3.0071449042220424e-05
-3.159791231177974e-05   3.5779627218653586e-06   -2.4971599890235484e-06
-3.159791231177974e-05   3.5779627218653586e-06   -2.4971599890235484e-06
-3.159791231177974e-05   3.5779627218653586e-06   -2.4971599890235484e-06
-3.159791231177974e-05   3.5779627218653586e-06   -2.4971599890235484e-06
-2.2641607238984003e-05   1.1494765824395675e-06   -1.596724342669417e-05
-2.2641607238984003e-05   1.1494765824395675e-06   -1.596724342669417e-05
-2.2641607238984003e-05   1.1494765824395675e-06   -1.596724342669417e-05
-2.2641607238984003e-05   1.1494765824395675e-06   -1.596724342669417e-05
-3.159791231177974e-05   0.0   -3.2218226675339695e-05
-3.159791231177974e-05   0.0   -3.2218226675339695e-05
-3.159791231177974e-05   0.0   -3.2218226675339695e-05
-3.159791231177974e-05   0.0   -3.2218226675339695e-05
-1.3765272299990052e-05   3.5779627218653586e-06   -3.503823559043285e-07
-1.3765272299990052e-05   3.5779627218653586e-06   -3.503823559043285e-07
-1.3765272299990052e-05   3.5779627218653586e-06   -3.503823559043285e-07
-1.3765272299990052e-05   3.5779627218653586e-06   -3.503823559043285e-07
-1.3469590650333116e-05   0.0   -2.9917530057067e-05
-1.3469590650333116e-05   0.0   -2.9917530057067e-05
-1.3469590650333116e-05   0.0   -2.9917530057067e-05
-1.3469590650333116e-05   0.0   -2.9917530057067e-05
-3.157125288341857e-05   4.165492086384761e-06   -2.2473882537554063e-06
-3.157125288341857e-05   4.165492086384761e-06   -2.2473882537554063e-06
-3.157125288341857e-05   4.165492086384761e-06   -2.2473882537554063e-06
-3.157125288341857e-05   4.165492086384761e-06   -2.2473882537554063e-06
-2.253375148105642e-05   1.9172471818938925e-06   -1.5960943648331157e-05
-2.253375148105642e-05   1.9172471818938925e-06   -1.5960943648331157e-05
-2.253375148105642e-05   1.9172471818938925e-06   -1.5960943648331157e-05
-2.253375148105642e-05   1.9172471818938925e-06   -1.5960943648331157e-05
-1.4657174646693004e-05   0.0   -2.8728153517874794e-05
-1.4657174646693004e-05   0.0   -2.8728153517874794e-05
-1.4657174646693004e-05   0.0   -2.8728153517874794e-05
-1.4657174646693004e-05   0.0   -2.8728153517874794e-05
1.874215940954539e-06   -2.643850289697628e-07   -1.3344668891773866e-06
1.874215940954539e-06   -2.643850289697628e-07   -1.3344668891773866e-06
1.874215940954539e-06   -2.643850289697628e-07   -1.3344668891773866e-06
1.874215940954539e-06   -2.643850289697628e-07   -1.3344668891773866e-06
2.2414139848586595e-06   0.0   -2.9389541628510088e-05
2.2414139848586595e-06   0.0   -2.9389541628510088e-05
2.2414139848586595e-06   0.0   -2.9389541628510088e-05
2.2414139848586595e-06   0.0   -2.9389541628510088e-05
-1.4088373301639935e-05   5.18217025876739e-07   -2.484159699871852e-06
-1.4088373301639935e-05   5.18217025876739e-07   -2.484159699871852e-06
-1.4088373301639935e-05   5.18217025876739e-07   -2.484159699871852e-06
-1.4088373301639935e-05   5.18217025876739e-07   -2.484159699871852e-06
-6.207880330917158e-06   -5.511567588628301e-07   -1.497669038023273e-05
-6.207880330917158e-06   -5.511567588628301e-07   -1.497669038023273e-05
-6.207880330917158e-06   -5.511567588628301e-07   -1.497669038023273e-05
-6.207880330917158e-06   -5.511567588628301e-07   -1.497669038023273e-05
-1.408837330163996e-05   0.0   -2.970047184403623e-05
-1.408837330163996e-05   0.0   -2.970047184403623e-05
-1.408837330163996e-05   0.0   -2.970047184403623e-05
-1.408837330163996e-05   0.0   -2.970047184403623e-05
2.2414139848586633e-06   5.18217025876739e-07   -2.1732294843458084e-06
2.2414139848586633e-06   5.18217025876739e-07   -2.1732294843458084e-06
2.2414139848586633e-06   5.18217025876739e-07   -2.1732294843458084e-06
2.2414139848586633e-06   5.18217025876739e-07   -2.1732294843458084e-06
2.532408428955676e-06   0.0   -2.934681076410317e-05
2.532408428955676e-06   0.0   -2.934681076410317e-05
2.532408428955676e-06   0.0   -2.934681076410317e-05
2.532408428955676e-06   0.0   -2.934681076410317e-05
-1.3765272299990005e-05   1.207730463528759e-06   -2.90864782731092e-06
-1.3765272299990005e-05   1.207730463528759e-06   -2.90864782731092e-06
-1.3765272299990005e-05   1.207730463528759e-06   -2.90864782731092e-06
-1.3765272299990005e-05   1.207730463528759e-06   -2.90864782731092e-06
-5.77798243634213e-06   2.9471756661084405e-07   -1.5672989861906653e-05
-5.77798243634213e-06   2.9471756661084405e-07   -1.5672989861906653e-05
-5.77798243634213e-06   2.9471756661084405e-07   -1.5672989861906653e-05
-5.77798243634213e-06   2.9471756661084405e-07   -1.5672989861906653e-05
-1.3765272299990052e-05   0.0   -3.0071449042220475e-05
-1.3765272299990052e-05   0.0   -3.0071449042220475e-05
-1.3765272299990052e-05   0.0   -3.0071449042220475e-05
-1.3765272299990052e-05   0.0   -3.0071449042220475e-05
2.5324084289556803e-06   1.207730463528759e-06   -2.1840095491936703e-06
2.5324084289556803e-06   1.207730463528759e-06   -2.1840095491936703e-06
2.5324084289556803e-06   1.207730463528759e-06   -2.1840095491936703e-06
2.5324084289556803e-06   1.207730463528759e-06   -2.1840095491936703e-06
2.9209831097372754e-06   0.0   -2.871403047404511e-05
2.9209831097372754e-06   0.0   -2.871403047404511e-05
2.9209831097372754e-06   0.0   -2.871403047404511e-05
2.9209831097372754e-06   0.0   -2.871403047404511e-05
-1.3469590650333106e-05   2.00583263836977e-06   -2.5999071236163384e-06
-1.3469590650333106e-05   2.00583263836977e-06   -2.5999071236163384e-06
-1.3469590650333106e-05   2.00583263836977e-06   -2.5999071236163384e-06
-1.3469590650333106e-05   2.00583263836977e-06   -2.5999071236163384e-06
-5.422144595126377e-06   1.1311821401460948e-06   -1.5487526916693338e-05
-5.422144595126377e-06   1.1311821401460948e-06   -1.5487526916693338e-05
-5.422144595126377e-06   1.1311821401460948e-06   -1.5487526916693338e-05
-5.422144595126377e-06   1.1311821401460948e-06   -1.5487526916693338e-05
1.8742159409545422e-06   0.0   -2.8886784535256652e-05
1.8742159409545422e-06   0.0   -2.8886784535256652e-05
1.8742159409545422e-06   0.0   -2.8886784535256652e-05
1.8742159409545422e-06   0.0   -2.8886784535256652e-05
1.9826375837326172e-05   -2.325478356062066e-06   -3.618050549411531e-07
1.9826375837326172e-05   -2.325478356062066e-06   -3.618050549411531e-07
1.9826375837326172e-05   -2.325478356062066e-06   -3.618050549411531e-07
1.9826375837326172e-05   -2.325478356062066e-06   -3.618050549411531e-07
1.987252772158823e-05   0.0   -3.0439895491497443e-05
1.987252772158823e-05   0.0   -3.0439895491497443e-05
1.987252772158823e-05   0.0   -3.0439895491497443e-05
1.987252772158823e-05   0.0   -3.0439895491497443e-05
2.2414139848586675e-06   -1.7505897716454222e-06   -4.352067294256483e-09
2.2414139848586675e-06   -1.7505897716454222e-06   -4.352067294256483e-09
2.2414139848586675e-06   -1.7505897716454222e-06   -4.352067294256483e-09
2.2414139848586675e-06   -1.7505897716454222e-06   -4.352067294256483e-09
1.0873371831271386e-05   -1.2942591302006598e-06   -1.4664746862848965e-05
1.0873371831271386e-05   -1.2942591302006598e-06   -1.4664746862848965e-05
1.0873371831271386e-05   -1.2942591302006598e-06   -1.4664746862848965e-05
1.0873371831271386e-05   -1.2942591302006598e-06   -1.4664746862848965e-05
2.2414139848586675e-06   0.0   -2.938954162851019e-05
2.2414139848586675e-06   0.0   -2.938954162851019e-05
2.2414139848586675e-06   0.0   -2.938954162851019e-05
2.2414139848586675e-06   0.0   -2.938954162851019e-05
1.987252772158823e-05   -1.7505897716454222e-06   -1.0547059302815092e-06
1.987252772158823e-05   -1.7505897716454222e-06   -1.0547059302815092e-06
1.987252772158823e-05   -1.7505897716454222e-06   -1.0547059302815092e-06
1.987252772158823e-05   -1.7505897716454222e-06   -1.0547059302815092e-06
1.979680761247111e-05   0.0   -3.0005303346384973e-05
1.979680761247111e-05   0.0   -3.0005303346384973e-05
1.979680761247111e-05   0.0   -3.0005303346384973e-05
1.979680761247111e-05   0.0   -3.0005303346384973e-05
2.5324084289556803e-06   -1.0974876371362504e-06   -5.728121249108444e-07
2.5324084289556803e-06   -1.0974876371362504e-06   -5.728121249108444e-07
2.5324084289556803e-06   -1.0974876371362504e-06   -5.728121249108444e-07
2.5324084289556803e-06   -1.0974876371362504e-06   -5.728121249108444e-07
1.1019110798664887e-05   -5.13134764895654e-07   -1.5067927797770537e-05
1.1019110798664887e-05   -5.13134764895654e-07   -1.5067927797770537e-05
1.1019110798664887e-05   -5.13134764895654e-07   -1.5067927797770537e-05
1.1019110798664887e-05   -5.13134764895654e-07   -1.5067927797770537e-05
2.5324084289556782e-06   0.0   -2.9346810764103196e-05
2.5324084289556782e-06   0.0   -2.9346810764103196e-05
2.5324084289556782e-06   0.0   -2.9346810764103196e-05
2.5324084289556782e-06   0.0   -2.9346810764103196e-05
1.979680761247111e-05   -1.0974876371362504e-06   -1.231304707192599e-06
1.979680761247111e-05   -1.0974876371362504e-06   -1.231304707192599e-06
1.979680761247111e-05   -1.0974876371362504e-06   -1.231304707192599e-06
1.979680761247111e-05   -1.0974876371362504e-06   -1.231304707192599e-06
2.018923575383257e-05   0.0   -2.8846292355596666e-05
2.018923575383257e-05   0.0   -2.8846292355596666e-05
2.018923575383257e-05   0.0   -2.8846292355596666e-05
2.018923575383257e-05   0.0   -2.8846292355596666e-05
2.9209831097372804e-06   -2.204364692525129e-07   6.639059944698458e-08
2.9209831097372804e-06   -2.204364692525129e-07   6.639059944698458e-08
2.9209831097372804e-06   -2.204364692525129e-07   6.639059944698458e-08
2.9209831097372804e-06   -2.204364692525129e-07   6.639059944698458e-08
1.1360822091394116e-05   4.170986737554623e-07   -1.438252878911918e-05
1.1360822091394116e-05   4.170986737554623e-07   -1.438252878911918e-05
1.1360822091394116e-05   4.170986737554623e-07   -1.438252878911918e-05
1.1360822091394116e-05   4.170986737554623e-07   -1.438252878911918e-05
1.9826375837326172e-05   0.0   -3.028207154889389e-05
1.9826375837326172e-05   0.0   -3.028207154889389e-05
1.9826375837326172e-05   0.0   -3.028207154889389e-05
1.9826375837326172e-05   0.0   -3.028207154889389e-05
4.481849261607001e-05   -5.90240789799219e-06   7.830011676884108e-06
4.481849261607001e-05   -5.90240789799219e-06   7.830011676884108e-06
4.481849261607001e-05   -5.90240789799219e-06   7.830011676884108e-06
4.481849261607001e-05   -5.90240789799219e-06   7.830011676884108e-06
4.210595204936219e-05   0.0   -3.344964803812693e-05
4.210595204936219e-05   0.0   -3.344964803812693e-05
4.210595204936219e-05   0.0   -3.344964803812693e-05
4.210595204936219e-05   0.0   -3.344964803812693e-05
1.987252772158823e-05   -5.016254244382479e-06   6.615811721459149e-06
1.987252772158823e-05   -5.016254244382479e-06   6.615811721459149e-06
1.987252772158823e-05   -5.016254244382479e-06   6.615811721459149e-06
1.987252772158823e-05   -5.016254244382479e-06   6.615811721459149e-06
3.096616394334418e-05   -2.6396470743608695e-06   -1.3299546283480382e-05
3.096616394334418e-05   -2.6396470743608695e-06   -1.3299546283480382e-05
3.096616394334418e-05   -2.6396470743608695e-06   -1.3299546283480382e-05
3.096616394334418e-05   -2.6396470743608695e-06   -1.3299546283480382e-05
1.9872527721588212e-05   0.0   -3.0439895491497416e-05
1.9872527721588212e-05   0.0   -3.0439895491497416e-05
1.9872527721588212e-05   0.0   -3.0439895491497416e-05
1.9872527721588212e-05   0.0   -3.0439895491497416e-05
4.2105952049362046e-05   -5.016254244382465e-06   3.606059174829647e-06
4.2105952049362046e-05   -5.016254244382465e-06   3.606059174829647e-06
4.2105952049362046e-05   -5.016254244382465e-06   3.606059174829647e-06
4.2105952049362046e-05   -5.016254244382465e-06   3.606059174829647e-06
4.0859332974514575e-05   0.0   -3.275431449443327e-05
4.0859332974514575e-05   0.0   -3.275431449443327e-05
4.0859332974514575e-05   0.0   -3.275431449443327e-05
4.0859332974514575e-05   0.0   -3.275431449443327e-05
1.979680761247111e-05   -4.581685246747165e-06   5.0989055903541205e-06
1.979680761247111e-05   -4.581685246747165e-06   5.0989055903541205e-06
1.979680761247111e-05   -4.581685246747165e-06   5.0989055903541205e-06
1.979680761247111e-05   -4.581685246747165e-06   5.0989055903541205e-06
3.0365930348051383e-05   -1.9286825024465254e-06   -1.4108100615526708e-05
3.0365930348051383e-05   -1.9286825024465254e-06   -1.4108100615526708e-05
3.0365930348051383e-05   -1.9286825024465254e-06   -1.4108100615526708e-05
3.0365930348051383e-05   -1.9286825024465254e-06   -1.4108100615526708e-05
1.979680761247111e-05   0.0   -3.0005303346384973e-05
1.979680761247111e-05   0.0   -3.0005303346384973e-05
1.979680761247111e-05   0.0   -3.0005303346384973e-05
1.979680761247111e-05   0.0   -3.0005303346384973e-05
4.085933297451443e-05   -4.581685246747151e-06   2.3498944423058256e-06
4.085933297451443e-05   -4.581685246747151e-06   2.3498944423058256e-06
4.085933297451443e-05   -4.581685246747151e-06   2.3498944423058256e-06
4.085933297451443e-05   -4.581685246747151e-06   2.3498944423058256e-06
3.899690401126522e-05   0.0   -3.097883096028016e-05
3.899690401126522e-05   0.0   -3.097883096028016e-05
3.899690401126522e-05   0.0   -3.097883096028016e-05
3.899690401126522e-05   0.0   -3.097883096028016e-05
2.0189235753832535e-05   -3.554231007805814e-06   2.4998214067910798e-06
2.0189235753832535e-05   -3.554231007805814e-06   2.4998214067910798e-06
2.0189235753832535e-05   -3.554231007805814e-06   2.4998214067910798e-06
2.0189235753832535e-05   -3.554231007805814e-06   2.4998214067910798e-06
2.9396855811868164e-05   -8.112730115793195e-07   -1.4491986821004127e-05
2.9396855811868164e-05   -8.112730115793195e-07   -1.4491986821004127e-05
2.9396855811868164e-05   -8.112730115793195e-07   -1.4491986821004127e-05
2.9396855811868164e-05   -8.112730115793195e-07   -1.4491986821004127e-05
-4.378051475921676e-05   5.585260096377577e-06   -2.880669767061971e-05
-4.378051475921676e-05   5.585260096377577e-06   -2.880669767061971e-05
-4.378051475921676e-05   5.585260096377577e-06   -2.880669767061971e-05