<?xml version="1.0"?> 
<VTKFile type="UnstructuredGrid"> 
   <UnstructuredGrid> 
      <Piece NumberOfPoints="6000"  NumberOfCells="1500">  
          <Points>  
             <DataArray type="Float64" NumberOfComponents="3" format="ascii">   
-500.0   0.0   0.0
-450.0   0.0   0.0
-500.0   30.0   0.0
-500.0   0.0   16.666666666666668
-450.0   0.0   0.0
-450.0   30.0   0.0
-500.0   30.0   0.0
-450.0   30.0   16.666666666666668
-500.0   0.0   16.666666666666668
-500.0   30.0   16.666666666666668
-450.0   30.0   16.666666666666668
-500.0   30.0   0.0
-500.0   0.0   16.666666666666668
-450.0   30.0   16.666666666666668
-450.0   0.0   16.666666666666668
-450.0   0.0   0.0
-500.0   0.0   16.666666666666668
-450.0   30.0   16.666666666666668
-450.0   0.0   0.0
-500.0   30.0   0.0
-500.0   0.0   16.666666666666668
-450.0   0.0   16.666666666666668
-500.0   30.0   16.666666666666668
-500.0   0.0   33.333333333333336
-450.0   0.0   16.666666666666668
-450.0   30.0   16.666666666666668
-500.0   30.0   16.666666666666668
-450.0   30.0   33.333333333333336
-500.0   0.0   33.333333333333336
-500.0   30.0   33.333333333333336
-450.0   30.0   33.333333333333336
-500.0   30.0   16.666666666666668
-500.0   0.0   33.333333333333336
-450.0   30.0   33.333333333333336
-450.0   0.0   33.333333333333336
-450.0   0.0   16.666666666666668
-500.0   0.0   33.333333333333336
-450.0   30.0   33.333333333333336
-450.0   0.0   16.666666666666668
-500.0   30.0   16.666666666666668
-500.0   0.0   33.333333333333336
-450.0   0.0   33.333333333333336
-500.0   30.0   33.333333333333336
-500.0   0.0   50.0
-450.0   0.0   33.333333333333336
-450.0   30.0   33.333333333333336
-500.0   30.0   33.333333333333336
-450.0   30.0   50.0
-500.0   0.0   50.0
-500.0   30.0   50.0
-450.0   30.0   50.0
-500.0   30.0   33.333333333333336
-500.0   0.0   50.0
-450.0   30.0   50.0
-450.0   0.0   50.0
-450.0   0.0   33.333333333333336
-500.0   0.0   50.0
-450.0   30.0   50.0
-450.0   0.0   33.333333333333336
-500.0   30.0   33.333333333333336
-500.0   30.0   0.0
-450.0   30.0   0.0
-500.0   60.0   0.0
-500.0   30.0   16.666666666666668
-450.0   30.0   0.0
-450.0   60.0   0.0
-500.0   60.0   0.0
-450.0   60.0   16.666666666666668
-500.0   30.0   16.666666666666668
-500.0   60.0   16.666666666666668
-450.0   60.0   16.666666666666668
-500.0   60.0   0.0
-500.0   30.0   16.666666666666668
-450.0   60.0   16.666666666666668
-450.0   30.0   16.666666666666668
-450.0   30.0   0.0
-500.0   30.0   16.666666666666668
-450.0   60.0   16.666666666666668
-450.0   30.0   0.0
-500.0   60.0   0.0
-500.0   30.0   16.666666666666668
-450.0   30.0   16.666666666666668
-500.0   60.0   16.666666666666668
-500.0   30.0   33.333333333333336
-450.0   30.0   16.666666666666668
-450.0   60.0   16.666666666666668
-500.0   60.0   16.666666666666668
-450.0   60.0   33.333333333333336
-500.0   30.0   33.333333333333336
-500.0   60.0   33.333333333333336
-450.0   60.0   33.333333333333336
-500.0   60.0   16.666666666666668
-500.0   30.0   33.333333333333336
-450.0   60.0   33.333333333333336
-450.0   30.0   33.333333333333336
-450.0   30.0   16.666666666666668
-500.0   30.0   33.333333333333336
-450.0   60.0   33.333333333333336
-450.0   30.0   16.666666666666668
-500.0   60.0   16.666666666666668
-500.0   30.0   33.333333333333336
-450.0   30.0   33.333333333333336
-500.0   60.0   33.333333333333336
-500.0   30.0   50.0
-450.0   30.0   33.333333333333336
-450.0   60.0   33.333333333333336
-500.0   60.0   33.333333333333336
-450.0   60.0   50.0
-500.0   30.0   50.0
-500.0   60.0   50.0
-450.0   60.0   50.0
-500.0   60.0   33.333333333333336
-500.0   30.0   50.0
-450.0   60.0   50.0
-450.0   30.0   50.0
-450.0   30.0   33.333333333333336
-500.0   30.0   50.0
-450.0   60.0   50.0
-450.0   30.0   33.333333333333336
-500.0   60.0   33.333333333333336
-500.0   60.0   0.0
-450.0   60.0   0.0
-500.0   90.0   0.0
-500.0   60.0   16.666666666666668
-450.0   60.0   0.0
-450.0   90.0   0.0
-500.0   90.0   0.0
-450.0   90.0   16.666666666666668
-500.0   60.0   16.666666666666668
-500.0   90.0   16.666666666666668
-450.0   90.0   16.666666666666668
-500.0   90.0   0.0
-500.0   60.0   16.666666666666668
-450.0   90.0   16.666666666666668
-450.0   60.0   16.666666666666668
-450.0   60.0   0.0
-500.0   60.0   16.666666666666668
-450.0   90.0   16.666666666666668
-450.0   60.0   0.0
-500.0   90.0   0.0
-500.0   60.0   16.666666666666668
-450.0   60.0   16.666666666666668
-500.0   90.0   16.666666666666668
-500.0   60.0   33.333333333333336
-450.0   60.0   16.666666666666668
-450.0   90.0   16.666666666666668
-500.0   90.0   16.666666666666668
-450.0   90.0   33.333333333333336
-500.0   60.0   33.333333333333336
-500.0   90.0   33.333333333333336
-450.0   90.0   33.333333333333336
-500.0   90.0   16.666666666666668
-500.0   60.0   33.333333333333336
-450.0   90.0   33.333333333333336
-450.0   60.0   33.333333333333336
-450.0   60.0   16.666666666666668
-500.0   60.0   33.333333333333336
-450.0   90.0   33.333333333333336
-450.0   60.0   16.666666666666668
-500.0   90.0   16.666666666666668
-500.0   60.0   33.333333333333336
-450.0   60.0   33.333333333333336
-500.0   90.0   33.333333333333336
-500.0   60.0   50.0
-450.0   60.0   33.333333333333336
-450.0   90.0   33.333333333333336
-500.0   90.0   33.333333333333336
-450.0   90.0   50.0
-500.0   60.0   50.0
-500.0   90.0   50.0
-450.0   90.0   50.0
-500.0   90.0   33.333333333333336
-500.0   60.0   50.0
-450.0   90.0   50.0
-450.0   60.0   50.0
-450.0   60.0   33.333333333333336
-500.0   60.0   50.0
-450.0   90.0   50.0
-450.0   60.0   33.333333333333336
-500.0   90.0   33.333333333333336
-500.0   90.0   0.0
-450.0   90.0   0.0
-500.0   120.0   0.0
-500.0   90.0   16.666666666666668
-450.0   90.0   0.0
-450.0   120.0   0.0
-500.0   120.0   0.0
-450.0   120.0   16.666666666666668
-500.0   90.0   16.666666666666668
-500.0   120.0   16.666666666666668
-450.0   120.0   16.666666666666668
-500.0   120.0   0.0
-500.0   90.0   16.666666666666668
-450.0   120.0   16.666666666666668
-450.0   90.0   16.666666666666668
-450.0   90.0   0.0
-500.0   90.0   16.666666666666668
-450.0   120.0   16.666666666666668
-450.0   90.0   0.0
-500.0   120.0   0.0
-500.0   90.0   16.666666666666668
-450.0   90.0   16.666666666666668
-500.0   120.0   16.666666666666668
-500.0   90.0   33.333333333333336
-450.0   90.0   16.666666666666668
-450.0   120.0   16.666666666666668
-500.0   120.0   16.666666666666668
-450.0   120.0   33.333333333333336
-500.0   90.0   33.333333333333336
-500.0   120.0   33.333333333333336
-450.0   120.0   33.333333333333336
-500.0   120.0   16.666666666666668
-500.0   90.0   33.333333333333336
-450.0   120.0   33.333333333333336
-450.0   90.0   33.333333333333336
-450.0   90.0   16.666666666666668
-500.0   90.0   33.333333333333336
-450.0   120.0   33.333333333333336
-450.0   90.0   16.666666666666668
-500.0   120.0   16.666666666666668
-500.0   90.0   33.333333333333336
-450.0   90.0   33.333333333333336
-500.0   120.0   33.333333333333336
-500.0   90.0   50.0
-450.0   90.0   33.333333333333336
-450.0   120.0   33.333333333333336
-500.0   120.0   33.333333333333336
-450.0   120.0   50.0
-500.0   90.0   50.0
-500.0   120.0   50.0
-450.0   120.0   50.0
-500.0   120.0   33.333333333333336
-500.0   90.0   50.0
-450.0   120.0   50.0
-450.0   90.0   50.0
-450.0   90.0   33.333333333333336
-500.0   90.0   50.0
-450.0   120.0   50.0
-450.0   90.0   33.333333333333336
-500.0   120.0   33.333333333333336
-500.0   120.0   0.0
-450.0   120.0   0.0
-500.0   150.0   0.0
-500.0   120.0   16.666666666666668
-450.0   120.0   0.0
-450.0   150.0   0.0
-500.0   150.0   0.0
-450.0   150.0   16.666666666666668
-500.0   120.0   16.666666666666668
-500.0   150.0   16.666666666666668
-450.0   150.0   16.666666666666668
-500.0   150.0   0.0
-500.0   120.0   16.666666666666668
-450.0   150.0   16.666666666666668
-450.0   120.0   16.666666666666668
-450.0   120.0   0.0
-500.0   120.0   16.666666666666668
-450.0   150.0   16.666666666666668
-450.0   120.0   0.0
-500.0   150.0   0.0
-500.0   120.0   16.666666666666668
-450.0   120.0   16.666666666666668
-500.0   150.0   16.666666666666668
-500.0   120.0   33.333333333333336
-450.0   120.0   16.666666666666668
-450.0   150.0   16.666666666666668
-500.0   150.0   16.666666666666668
-450.0   150.0   33.333333333333336
-500.0   120.0   33.333333333333336
-500.0   150.0   33.333333333333336
-450.0   150.0   33.333333333333336
-500.0   150.0   16.666666666666668
-500.0   120.0   33.333333333333336
-450.0   150.0   33.333333333333336
-450.0   120.0   33.333333333333336
-450.0   120.0   16.666666666666668
-500.0   120.0   33.333333333333336
-450.0   150.0   33.333333333333336
-450.0   120.0   16.666666666666668
-500.0   150.0   16.666666666666668
-500.0   120.0   33.333333333333336
-450.0   120.0   33.333333333333336
-500.0   150.0   33.333333333333336
-500.0   120.0   50.0
-450.0   120.0   33.333333333333336
-450.0   150.0   33.333333333333336
-500.0   150.0   33.333333333333336
-450.0   150.0   50.0
-500.0   120.0   50.0
-500.0   150.0   50.0
-450.0   150.0   50.0
-500.0   150.0   33.333333333333336
-500.0   120.0   50.0
-450.0   150.0   50.0
-450.0   120.0   50.0
-450.0   120.0   33.333333333333336
-500.0   120.0   50.0
-450.0   150.0   50.0
-450.0   120.0   33.333333333333336
-500.0   150.0   33.333333333333336
-450.0   0.0   0.0
-400.0   0.0   0.0
-450.0   30.0   0.0
-450.0   0.0   16.666666666666668
-400.0   0.0   0.0
-400.0   30.0   0.0
-450.0   30.0   0.0
-400.0   30.0   16.666666666666668
-450.0   0.0   16.666666666666668
-450.0   30.0   16.666666666666668
-400.0   30.0   16.666666666666668
-450.0   30.0   0.0
-450.0   0.0   16.666666666666668
-400.0   30.0   16.666666666666668
-400.0   0.0   16.666666666666668
-400.0   0.0   0.0
-450.0   0.0   16.666666666666668
-400.0   30.0   16.666666666666668
-400.0   0.0   0.0
-450.0   30.0   0.0
-450.0   0.0   16.666666666666668
-400.0   0.0   16.666666666666668
-450.0   30.0   16.666666666666668
[...]
          <PointData>  
             <DataArray type="Float64" NumberOfComponents="3" Name="Strains" format="ascii">   
-0.00010063189759967954   0.0   -6.602799002685733e-05
-0.00010063189759967954   0.0   -6.602799002685733e-05
-0.00010063189759967954   0.0   -6.602799002685733e-05
-0.00010063189759967954   0.0   -6.602799002685733e-05
-6.403569818432907e-05   1.1150327294092517e-05   1.6558720418488441e-06
-6.403569818432907e-05   1.1150327294092517e-05   1.6558720418488441e-06
-6.403569818432907e-05   1.1150327294092517e-05   1.6558720418488441e-06
-6.403569818432907e-05   1.1150327294092517e-05   1.6558720418488441e-06
-6.277061967548978e-05   0.0   -6.231517048247573e-05
-6.277061967548978e-05   0.0   -6.231517048247573e-05
-6.277061967548978e-05   0.0   -6.231517048247573e-05
-6.277061967548978e-05   0.0   -6.231517048247573e-05
-0.00010531770089546518   1.337989060927068e-05   5.686971852544864e-07
-0.00010531770089546518   1.337989060927068e-05   5.686971852544864e-07
-0.00010531770089546518   1.337989060927068e-05   5.686971852544864e-07
-0.00010531770089546518   1.337989060927068e-05   5.686971852544864e-07
-8.170125863758452e-05   3.094016286984654e-06   -3.262051531784165e-05
-8.170125863758452e-05   3.094016286984654e-06   -3.262051531784165e-05
-8.170125863758452e-05   3.094016286984654e-06   -3.262051531784165e-05
-8.170125863758452e-05   3.094016286984654e-06   -3.262051531784165e-05
-0.00010531770089546537   0.0   -7.034310484803816e-05
-0.00010531770089546537   0.0   -7.034310484803816e-05
-0.00010531770089546537   0.0   -7.034310484803816e-05
-0.00010531770089546537   0.0   -7.034310484803816e-05
-6.277061967548978e-05   1.3379890609270707e-05   8.596631550816903e-06
-6.277061967548978e-05   1.3379890609270707e-05   8.596631550816903e-06
-6.277061967548978e-05   1.3379890609270707e-05   8.596631550816903e-06
-6.277061967548978e-05   1.3379890609270707e-05   8.596631550816903e-06
-6.294909331254622e-05   0.0   -6.384081701998182e-05
-6.294909331254622e-05   0.0   -6.384081701998182e-05
-6.294909331254622e-05   0.0   -6.384081701998182e-05
-6.294909331254622e-05   0.0   -6.384081701998182e-05
-0.00010860916001977605   1.433424419916389e-05   3.6587476392365423e-06
-0.00010860916001977605   1.433424419916389e-05   3.6587476392365423e-06
-0.00010860916001977605   1.433424419916389e-05   3.6587476392365423e-06
-0.00010860916001977605   1.433424419916389e-05   3.6587476392365423e-06
-8.413339710400565e-05   5.418573190046941e-06   -3.1784787948243944e-05
-8.413339710400565e-05   5.418573190046941e-06   -3.1784787948243944e-05
-8.413339710400565e-05   5.418573190046941e-06   -3.1784787948243944e-05
-8.413339710400565e-05   5.418573190046941e-06   -3.1784787948243944e-05
-0.00010860916001977624   0.0   -7.244136353948017e-05
-0.00010860916001977624   0.0   -7.244136353948017e-05
-0.00010860916001977624   0.0   -7.244136353948017e-05
-0.00010860916001977624   0.0   -7.244136353948017e-05
-6.294909331254611e-05   1.433424419916389e-05   1.2259294158734865e-05
-6.294909331254611e-05   1.433424419916389e-05   1.2259294158734865e-05
-6.294909331254611e-05   1.433424419916389e-05   1.2259294158734865e-05
-6.294909331254611e-05   1.433424419916389e-05   1.2259294158734865e-05
-6.291763973707472e-05   0.0   -6.423261878088832e-05
-6.291763973707472e-05   0.0   -6.423261878088832e-05
-6.291763973707472e-05   0.0   -6.423261878088832e-05
-6.291763973707472e-05   0.0   -6.423261878088832e-05
-0.00011569843139316308   1.6328730152992087e-05   1.3938129220797299e-05
-0.00011569843139316308   1.6328730152992087e-05   1.3938129220797299e-05
-0.00011569843139316308   1.6328730152992087e-05   1.3938129220797299e-05
-0.00011569843139316308   1.6328730152992087e-05   1.3938129220797299e-05
-8.576339987842533e-05   6.840620632159877e-06   -3.0260724257932888e-05
-8.576339987842533e-05   6.840620632159877e-06   -3.0260724257932888e-05
-8.576339987842533e-05   6.840620632159877e-06   -3.0260724257932888e-05
-8.576339987842533e-05   6.840620632159877e-06   -3.0260724257932888e-05
-6.403569818432918e-05   0.0   -5.9337793650401805e-05
-6.403569818432918e-05   0.0   -5.9337793650401805e-05
-6.403569818432918e-05   0.0   -5.9337793650401805e-05
-6.403569818432918e-05   0.0   -5.9337793650401805e-05
-2.916052712699518e-05   4.089934337523401e-06   1.2414520476688597e-06
-2.916052712699518e-05   4.089934337523401e-06   1.2414520476688597e-06
-2.916052712699518e-05   4.089934337523401e-06   1.2414520476688597e-06
-2.916052712699518e-05   4.089934337523401e-06   1.2414520476688597e-06
-2.804759507274164e-05   0.0   -5.88219340406736e-05
-2.804759507274164e-05   0.0   -5.88219340406736e-05
-2.804759507274164e-05   0.0   -5.88219340406736e-05
-2.804759507274164e-05   0.0   -5.88219340406736e-05
-6.277061967548978e-05   5.822060736336722e-06   -4.443462811228914e-06
-6.277061967548978e-05   5.822060736336722e-06   -4.443462811228914e-06
-6.277061967548978e-05   5.822060736336722e-06   -4.443462811228914e-06
-6.277061967548978e-05   5.822060736336722e-06   -4.443462811228914e-06
-4.604164662853535e-05   4.2988300810674996e-07   -2.9089777919214772e-05
-4.604164662853535e-05   4.2988300810674996e-07   -2.9089777919214772e-05
-4.604164662853535e-05   4.2988300810674996e-07   -2.9089777919214772e-05
-4.604164662853535e-05   4.2988300810674996e-07   -2.9089777919214772e-05
-6.277061967548972e-05   0.0   -6.231517048247567e-05
-6.277061967548972e-05   0.0   -6.231517048247567e-05
-6.277061967548972e-05   0.0   -6.231517048247567e-05
-6.277061967548972e-05   0.0   -6.231517048247567e-05
-2.804759507274164e-05   5.822060736336709e-06   -9.502263694268818e-07
-2.804759507274164e-05   5.822060736336709e-06   -9.502263694268818e-07
-2.804759507274164e-05   5.822060736336709e-06   -9.502263694268818e-07
-2.804759507274164e-05   5.822060736336709e-06   -9.502263694268818e-07
-2.7423130635194693e-05   0.0   -5.956060774031832e-05
-2.7423130635194693e-05   0.0   -5.956060774031832e-05
-2.7423130635194693e-05   0.0   -5.956060774031832e-05
-2.7423130635194693e-05   0.0   -5.956060774031832e-05
-6.294909331254622e-05   7.1336821327723195e-06   -4.630879224396035e-06
-6.294909331254622e-05   7.1336821327723195e-06   -4.630879224396035e-06
-6.294909331254622e-05   7.1336821327723195e-06   -4.630879224396035e-06
-6.294909331254622e-05   7.1336821327723195e-06   -4.630879224396035e-06
-4.509687515534217e-05   2.2954689517977475e-06   -3.148164824448445e-05
-4.509687515534217e-05   2.2954689517977475e-06   -3.148164824448445e-05
-4.509687515534217e-05   2.2954689517977475e-06   -3.148164824448445e-05
-4.509687515534217e-05   2.2954689517977475e-06   -3.148164824448445e-05
-6.294909331254622e-05   0.0   -6.384081701998182e-05
-6.294909331254622e-05   0.0   -6.384081701998182e-05
-6.294909331254622e-05   0.0   -6.384081701998182e-05
-6.294909331254622e-05   0.0   -6.384081701998182e-05
-2.742313063519474e-05   7.1336821327723195e-06   -3.506699447326531e-07
-2.742313063519474e-05   7.1336821327723195e-06   -3.506699447326531e-07
-2.742313063519474e-05   7.1336821327723195e-06   -3.506699447326531e-07
-2.742313063519474e-05   7.1336821327723195e-06   -3.506699447326531e-07
-2.6854746281386637e-05   0.0   -5.925230201396063e-05
-2.6854746281386637e-05   0.0   -5.925230201396063e-05
-2.6854746281386637e-05   0.0   -5.925230201396063e-05
-2.6854746281386637e-05   0.0   -5.925230201396063e-05
-6.291763973707467e-05   8.300527944879395e-06   -4.127796354741492e-06
-6.291763973707467e-05   8.300527944879395e-06   -4.127796354741492e-06
-6.291763973707467e-05   8.300527944879395e-06   -4.127796354741492e-06
-6.291763973707467e-05   8.300527944879395e-06   -4.127796354741492e-06
-4.490191979696641e-05   3.823762505017616e-06   -3.146793699100491e-05
-4.490191979696641e-05   3.823762505017616e-06   -3.146793699100491e-05
-4.490191979696641e-05   3.823762505017616e-06   -3.146793699100491e-05
-4.490191979696641e-05   3.823762505017616e-06   -3.146793699100491e-05
-2.916052712699523e-05   0.0   -5.688383304788776e-05
-2.916052712699523e-05   0.0   -5.688383304788776e-05
-2.916052712699523e-05   0.0   -5.688383304788776e-05
-2.916052712699523e-05   0.0   -5.688383304788776e-05
3.791196713610242e-06   -5.23654987328177e-07   -2.2784863059421616e-06
3.791196713610242e-06   -5.23654987328177e-07   -2.2784863059421616e-06
3.791196713610242e-06   -5.23654987328177e-07   -2.2784863059421616e-06
3.791196713610242e-06   -5.23654987328177e-07   -2.2784863059421616e-06
4.50090753890227e-06   0.0   -5.8202718809775736e-05
4.50090753890227e-06   0.0   -5.8202718809775736e-05
4.50090753890227e-06   0.0   -5.8202718809775736e-05
4.50090753890227e-06   0.0   -5.8202718809775736e-05
-2.804759507274164e-05   1.032025384829614e-06   -4.574429687933747e-06
-2.804759507274164e-05   1.032025384829614e-06   -4.574429687933747e-06
-2.804759507274164e-05   1.032025384829614e-06   -4.574429687933747e-06
-2.804759507274164e-05   1.032025384829614e-06   -4.574429687933747e-06
-1.232980979404645e-05   -1.0990714682401436e-06   -2.949208037391718e-05
-1.232980979404645e-05   -1.0990714682401436e-06   -2.949208037391718e-05
-1.232980979404645e-05   -1.0990714682401436e-06   -2.949208037391718e-05
-1.232980979404645e-05   -1.0990714682401436e-06   -2.949208037391718e-05
-2.804759507274169e-05   0.0   -5.88219340406737e-05
-2.804759507274169e-05   0.0   -5.88219340406737e-05
-2.804759507274169e-05   0.0   -5.88219340406737e-05
-2.804759507274169e-05   0.0   -5.88219340406737e-05
4.500907538902278e-06   1.032025384829614e-06   -3.955214457035974e-06
4.500907538902278e-06   1.032025384829614e-06   -3.955214457035974e-06
4.500907538902278e-06   1.032025384829614e-06   -3.955214457035974e-06
4.500907538902278e-06   1.032025384829614e-06   -3.955214457035974e-06
5.060864738227186e-06   0.0   -5.811956234458945e-05
5.060864738227186e-06   0.0   -5.811956234458945e-05
5.060864738227186e-06   0.0   -5.811956234458945e-05
5.060864738227186e-06   0.0   -5.811956234458945e-05
-2.7423130635194646e-05   2.401742326214786e-06   -5.4206154512818626e-06
-2.7423130635194646e-05   2.401742326214786e-06   -5.4206154512818626e-06
-2.7423130635194646e-05   2.401742326214786e-06   -5.4206154512818626e-06
-2.7423130635194646e-05   2.401742326214786e-06   -5.4206154512818626e-06
-1.1493365167257226e-05   5.85309746736793e-07   -3.088036501682415e-05
-1.1493365167257226e-05   5.85309746736793e-07   -3.088036501682415e-05
-1.1493365167257226e-05   5.85309746736793e-07   -3.088036501682415e-05
-1.1493365167257226e-05   5.85309746736793e-07   -3.088036501682415e-05
-2.742313063519474e-05   0.0   -5.956060774031843e-05
-2.742313063519474e-05   0.0   -5.956060774031843e-05
-2.742313063519474e-05   0.0   -5.956060774031843e-05
-2.742313063519474e-05   0.0   -5.956060774031843e-05
5.060864738227195e-06   2.4017423262147998e-06   -3.979570055552999e-06
5.060864738227195e-06   2.4017423262147998e-06   -3.979570055552999e-06
5.060864738227195e-06   2.4017423262147998e-06   -3.979570055552999e-06
5.060864738227195e-06   2.4017423262147998e-06   -3.979570055552999e-06
5.814770956454674e-06   0.0   -5.685931613002863e-05
5.814770956454674e-06   0.0   -5.685931613002863e-05
5.814770956454674e-06   0.0   -5.685931613002863e-05
5.814770956454674e-06   0.0   -5.685931613002863e-05
-2.6854746281386617e-05   3.988309806553258e-06   -4.8031066175584314e-06
-2.6854746281386617e-05   3.988309806553258e-06   -4.8031066175584314e-06
-2.6854746281386617e-05   3.988309806553258e-06   -4.8031066175584314e-06
-2.6854746281386617e-05   3.988309806553258e-06   -4.8031066175584314e-06
-1.080417983937001e-05   2.2510763419080854e-06   -3.0511710608798983e-05
-1.080417983937001e-05   2.2510763419080854e-06   -3.0511710608798983e-05
-1.080417983937001e-05   2.2510763419080854e-06   -3.0511710608798983e-05
-1.080417983937001e-05   2.2510763419080854e-06   -3.0511710608798983e-05
3.7911967136102483e-06   0.0   -5.7198026040284665e-05
3.7911967136102483e-06   0.0   -5.7198026040284665e-05
3.7911967136102483e-06   0.0   -5.7198026040284665e-05
3.7911967136102483e-06   0.0   -5.7198026040284665e-05
3.955856125894986e-05   -4.639807544520112e-06   -3.6963632476400834e-07
3.955856125894986e-05   -4.639807544520112e-06   -3.6963632476400834e-07
3.955856125894986e-05   -4.639807544520112e-06   -3.6963632476400834e-07
3.955856125894986e-05   -4.639807544520112e-06   -3.6963632476400834e-07
3.962647778344959e-05   0.0   -6.0301644468490256e-05
3.962647778344959e-05   0.0   -6.0301644468490256e-05
3.962647778344959e-05   0.0   -6.0301644468490256e-05
3.962647778344959e-05   0.0   -6.0301644468490256e-05
4.500907538902285e-06   -3.4982094311905424e-06   3.3989826446956497e-07
4.500907538902285e-06   -3.4982094311905424e-06   3.3989826446956497e-07
4.500907538902285e-06   -3.4982094311905424e-06   3.3989826446956497e-07
4.500907538902285e-06   -3.4982094311905424e-06   3.3989826446956497e-07
2.1708837248529918e-05   -2.5863486901713263e-06   -2.8887101029521327e-05
2.1708837248529918e-05   -2.5863486901713263e-06   -2.8887101029521327e-05
2.1708837248529918e-05   -2.5863486901713263e-06   -2.8887101029521327e-05
2.1708837248529918e-05   -2.5863486901713263e-06   -2.8887101029521327e-05
4.500907538902285e-06   0.0   -5.820271880977593e-05
4.500907538902285e-06   0.0   -5.820271880977593e-05
4.500907538902285e-06   0.0   -5.820271880977593e-05
4.500907538902285e-06   0.0   -5.820271880977593e-05
3.962647778344959e-05   -3.4982094311905424e-06   -1.7590273942447583e-06
3.962647778344959e-05   -3.4982094311905424e-06   -1.7590273942447583e-06
3.962647778344959e-05   -3.4982094311905424e-06   -1.7590273942447583e-06
3.962647778344959e-05   -3.4982094311905424e-06   -1.7590273942447583e-06
3.945467328914728e-05   0.0   -5.94405423785252e-05
3.945467328914728e-05   0.0   -5.94405423785252e-05
3.945467328914728e-05   0.0   -5.94405423785252e-05
3.945467328914728e-05   0.0   -5.94405423785252e-05
5.060864738227195e-06   -2.201633389892755e-06   -7.965480930560911e-07
5.060864738227195e-06   -2.201633389892755e-06   -7.965480930560911e-07
5.060864738227195e-06   -2.201633389892755e-06   -7.965480930560911e-07
5.060864738227195e-06   -2.201633389892755e-06   -7.965480930560911e-07
2.1977790414024783e-05   -1.0315196406243915e-06   -2.9693492468946392e-05
2.1977790414024783e-05   -1.0315196406243915e-06   -2.9693492468946392e-05
2.1977790414024783e-05   -1.0315196406243915e-06   -2.9693492468946392e-05
2.1977790414024783e-05   -1.0315196406243915e-06   -2.9693492468946392e-05
5.060864738227191e-06   0.0   -5.8119562344589504e-05
5.060864738227191e-06   0.0   -5.8119562344589504e-05
5.060864738227191e-06   0.0   -5.8119562344589504e-05
5.060864738227191e-06   0.0   -5.8119562344589504e-05
3.945467328914728e-05   -2.201633389892755e-06   -2.1175281269917445e-06
3.945467328914728e-05   -2.201633389892755e-06   -2.1175281269917445e-06
3.945467328914728e-05   -2.201633389892755e-06   -2.1175281269917445e-06
3.945467328914728e-05   -2.201633389892755e-06   -2.1175281269917445e-06
4.021678334215772e-05   0.0   -5.7134834526799795e-05
4.021678334215772e-05   0.0   -5.7134834526799795e-05
4.021678334215772e-05   0.0   -5.7134834526799795e-05
4.021678334215772e-05   0.0   -5.7134834526799795e-05
5.814770956454683e-06   -4.591973279517795e-07   4.77371179476321e-07
5.814770956454683e-06   -4.591973279517795e-07   4.77371179476321e-07
5.814770956454683e-06   -4.591973279517795e-07   4.77371179476321e-07
5.814770956454683e-06   -4.591973279517795e-07   4.77371179476321e-07
2.2638824040192438e-05   8.206065148247957e-07   -2.833059959908586e-05
2.2638824040192438e-05   8.206065148247957e-07   -2.833059959908586e-05
2.2638824040192438e-05   8.206065148247957e-07   -2.833059959908586e-05
2.2638824040192438e-05   8.206065148247957e-07   -2.833059959908586e-05
3.955856125894986e-05   0.0   -5.9981910566996736e-05
3.955856125894986e-05   0.0   -5.9981910566996736e-05
3.955856125894986e-05   0.0   -5.9981910566996736e-05
3.955856125894986e-05   0.0   -5.9981910566996736e-05
8.929627765712489e-05   -1.1760259147572334e-05   1.585812794141874e-05
8.929627765712489e-05   -1.1760259147572334e-05   1.585812794141874e-05
8.929627765712489e-05   -1.1760259147572334e-05   1.585812794141874e-05
8.929627765712489e-05   -1.1760259147572334e-05   1.585812794141874e-05
8.386046499695041e-05   0.0   -6.63060785384185e-05
8.386046499695041e-05   0.0   -6.63060785384185e-05
8.386046499695041e-05   0.0   -6.63060785384185e-05
8.386046499695041e-05   0.0   -6.63060785384185e-05
3.962647778344959e-05   -1.0007390116547059e-05   1.3421667554011098e-05
3.962647778344959e-05   -1.0007390116547059e-05   1.3421667554011098e-05
3.962647778344959e-05   -1.0007390116547059e-05   1.3421667554011098e-05
3.962647778344959e-05   -1.0007390116547059e-05   1.3421667554011098e-05
6.170951312795014e-05   -5.270139976184806e-06   -2.622574143770713e-05
6.170951312795014e-05   -5.270139976184806e-06   -2.622574143770713e-05
6.170951312795014e-05   -5.270139976184806e-06   -2.622574143770713e-05
6.170951312795014e-05   -5.270139976184806e-06   -2.622574143770713e-05
3.962647778344955e-05   0.0   -6.03016444684902e-05
3.962647778344955e-05   0.0   -6.03016444684902e-05
3.962647778344955e-05   0.0   -6.03016444684902e-05
3.962647778344955e-05   0.0   -6.03016444684902e-05
8.386046499695012e-05   -1.0007390116547018e-05   7.41723348408283e-06
8.386046499695012e-05   -1.0007390116547018e-05   7.41723348408283e-06
8.386046499695012e-05   -1.0007390116547018e-05   7.41723348408283e-06
8.386046499695012e-05   -1.0007390116547018e-05   7.41723348408283e-06
8.135285038237247e-05   0.0   -6.492751596793207e-05
8.135285038237247e-05   0.0   -6.492751596793207e-05
8.135285038237247e-05   0.0   -6.492751596793207e-05
8.135285038237247e-05   0.0   -6.492751596793207e-05
3.945467328914728e-05   -9.144955982344778e-06   1.0389752776850103e-05
3.945467328914728e-05   -9.144955982344778e-06   1.0389752776850103e-05
3.945467328914728e-05   -9.144955982344778e-06   1.0389752776850103e-05
3.945467328914728e-05   -9.144955982344778e-06   1.0389752776850103e-05
6.0489664082910986e-05   -3.854892916201516e-06   -2.7842603052442044e-05
6.0489664082910986e-05   -3.854892916201516e-06   -2.7842603052442044e-05
6.0489664082910986e-05   -3.854892916201516e-06   -2.7842603052442044e-05
6.0489664082910986e-05   -3.854892916201516e-06   -2.7842603052442044e-05
3.945467328914728e-05   0.0   -5.94405423785252e-05
3.945467328914728e-05   0.0   -5.94405423785252e-05
3.945467328914728e-05   0.0   -5.94405423785252e-05
3.945467328914728e-05   0.0   -5.94405423785252e-05
8.135285038237219e-05   -9.144955982344751e-06   4.9027791874432065e-06
8.135285038237219e-05   -9.144955982344751e-06   4.9027791874432065e-06
8.135285038237219e-05   -9.144955982344751e-06   4.9027791874432065e-06
8.135285038237219e-05   -9.144955982344751e-06   4.9027791874432065e-06
7.76211783815963e-05   0.0   -6.140034601265222e-05
7.76211783815963e-05   0.0   -6.140034601265222e-05
7.76211783815963e-05   0.0   -6.140034601265222e-05
7.76211783815963e-05   0.0   -6.140034601265222e-05
4.021678334215765e-05   -7.109185809754033e-06   5.205823872264507e-06
4.021678334215765e-05   -7.109185809754033e-06   5.205823872264507e-06
4.021678334215765e-05   -7.109185809754033e-06   5.205823872264507e-06
4.021678334215765e-05   -7.109185809754033e-06   5.205823872264507e-06
5.8537925835371786e-05   -1.63316969510585e-06   -2.86150232852145e-05
5.8537925835371786e-05   -1.63316969510585e-06   -2.86150232852145e-05
5.8537925835371786e-05   -1.63316969510585e-06   -2.86150232852145e-05
5.8537925835371786e-05   -1.63316969510585e-06   -2.86150232852145e-05
-8.732498610903989e-05   1.1150327294092504e-05   -5.7285230754085264e-05
-8.732498610903989e-05   1.1150327294092504e-05   -5.7285230754085264e-05
-8.732498610903989e-05   1.1150327294092504e-05   -5.7285230754085264e-05
-8.732498610903989e-05   1.1150327294092504e-05   -5.7285230754085264e-05
-5.5929815838521075e-05   1.002805566860317e-05   -5.633309945180827e-06