<?xml version="1.0"?> 
<VTKFile type="UnstructuredGrid"> 
   <UnstructuredGrid> 
      <Piece NumberOfPoints="6000"  NumberOfCells="1500">  
          <Points>  
             <DataArray type="Float64" NumberOfComponents="3" format="ascii">   
-500.0   0.0   0.0
-450.0   0.0   0.0
-500.0   30.0   0.0
-500.0   0.0   16.666666666666668
-450.0   0.0   0.0
-450.0   30.0   0.0
-500.0   30.0   0.0
-450.0   30.0   16.666666666666668
-500.0   0.0   16.666666666666668
-500.0   30.0   16.666666666666668
-450.0   30.0   16.666666666666668
-500.0   30.0   0.0
-500.0   0.0   16.666666666666668
-450.0   30.0   16.666666666666668
-450.0   0.0   16.666666666666668
-450.0   0.0   0.0
-500.0   0.0   16.666666666666668
-450.0   30.0   16.666666666666668
-450.0   0.0   0.0
-500.0   30.0   0.0
-500.0   0.0   16.666666666666668
-450.0   0.0   16.666666666666668
-500.0   30.0   16.666666666666668
-500.0   0.0   33.333333333333336
-450.0   0.0   16.666666666666668
-450.0   30.0   16.666666666666668
-500.0   30.0   16.666666666666668
-450.0   30.0   33.333333333333336
-500.0   0.0   33.333333333333336
-500.0   30.0   33.333333333333336
-450.0   30.0   33.333333333333336
-500.0   30.0   16.666666666666668
-500.0   0.0   33.333333333333336
-450.0   30.0   33.333333333333336
-450.0   0.0   33.333333333333336
-450.0   0.0   16.666666666666668
-500.0   0.0   33.333333333333336
-450.0   30.0   33.333333333333336
-450.0   0.0   16.666666666666668
-500.0   30.0   16.666666666666668
-500.0   0.0   33.333333333333336
-450.0   0.0   33.333333333333336
-500.0   30.0   33.333333333333336
-500.0   0.0   50.0
-450.0   0.0   33.333333333333336
-450.0   30.0   33.333333333333336
-500.0   30.0   33.333333333333336
-450.0   30.0   50.0
-500.0   0.0   50.0
-500.0   30.0   50.0
-450.0   30.0   50.0
-500.0   30.0   33.333333333333336
-500.0   0.0   50.0
-450.0   30.0   50.0
-450.0   0.0   50.0
-450.0   0.0   33.333333333333336
-500.0   0.0   50.0
-450.0   30.0   50.0
-450.0   0.0   33.333333333333336
-500.0   30.0   33.333333333333336
-500.0   30.0   0.0
-450.0   30.0   0.0
-500.0   60.0   0.0
-500.0   30.0   16.666666666666668
-450.0   30.0   0.0
-450.0   60.0   0.0
-500.0   60.0   0.0
-450.0   60.0   16.666666666666668
-500.0   30.0   16.666666666666668
-500.0   60.0   16.666666666666668
-450.0   60.0   16.666666666666668
-500.0   60.0   0.0
-500.0   30.0   16.666666666666668
-450.0   60.0   16.666666666666668
-450.0   30.0   16.666666666666668
-450.0   30.0   0.0
-500.0   30.0   16.666666666666668
-450.0   60.0   16.666666666666668
-450.0   30.0   0.0
-500.0   60.0   0.0
-500.0   30.0   16.666666666666668
-450.0   30.0   16.666666666666668
-500.0   60.0   16.666666666666668
-500.0   30.0   33.333333333333336
-450.0   30.0   16.666666666666668
-450.0   60.0   16.666666666666668
-500.0   60.0   16.666666666666668
-450.0   60.0   33.333333333333336
-500.0   30.0   33.333333333333336
-500.0   60.0   33.333333333333336
-450.0   60.0   33.333333333333336
-500.0   60.0   16.666666666666668
-500.0   30.0   33.333333333333336
-450.0   60.0   33.333333333333336
-450.0   30.0   33.333333333333336
-450.0   30.0   16.666666666666668
-500.0   30.0   33.333333333333336
-450.0   60.0   33.333333333333336
-450.0   30.0   16.666666666666668
-500.0   60.0   16.666666666666668
-500.0   30.0   33.333333333333336
-450.0   30.0   33.333333333333336
-500.0   60.0   33.333333333333336
-500.0   30.0   50.0
-450.0   30.0   33.333333333333336
-450.0   60.0   33.333333333333336
-500.0   60.0   33.333333333333336
-450.0   60.0   50.0
-500.0   30.0   50.0
-500.0   60.0   50.0
-450.0   60.0   50.0
-500.0   60.0   33.333333333333336
-500.0   30.0   50.0
-450.0   60.0   50.0
-450.0   30.0   50.0
-450.0   30.0   33.333333333333336
-500.0   30.0   50.0
-450.0   60.0   50.0
-450.0   30.0   33.333333333333336
-500.0   60.0   33.333333333333336
-500.0   60.0   0.0
-450.0   60.0   0.0
-500.0   90.0   0.0
-500.0   60.0   16.666666666666668
-450.0   60.0   0.0
-450.0   90.0   0.0
-500.0   90.0   0.0
-450.0   90.0   16.666666666666668
-500.0   60.0   16.666666666666668
-500.0   90.0   16.666666666666668
-450.0   90.0   16.666666666666668
-500.0   90.0   0.0
-500.0   60.0   16.666666666666668
-450.0   90.0   16.666666666666668
-450.0   60.0   16.666666666666668
-450.0   60.0   0.0
-500.0   60.0   16.666666666666668
-450.0   90.0   16.666666666666668
-450.0   60.0   0.0
-500.0   90.0   0.0
-500.0   60.0   16.666666666666668
-450.0   60.0   16.666666666666668
-500.0   90.0   16.666666666666668
-500.0   60.0   33.333333333333336
-450.0   60.0   16.666666666666668
-450.0   90.0   16.666666666666668
-500.0   90.0   16.666666666666668
-450.0   90.0   33.333333333333336
-500.0   60.0   33.333333333333336
-500.0   90.0   33.333333333333336
-450.0   90.0   33.333333333333336
-500.0   90.0   16.666666666666668
-500.0   60.0   33.333333333333336
-450.0   90.0   33.333333333333336
-450.0   60.0   33.333333333333336
-450.0   60.0   16.666666666666668
-500.0   60.0   33.333333333333336
-450.0   90.0   33.333333333333336
-450.0   60.0   16.666666666666668
-500.0   90.0   16.666666666666668
-500.0   60.0   33.333333333333336
-450.0   60.0   33.333333333333336
-500.0   90.0   33.333333333333336
-500.0   60.0   50.0
-450.0   60.0   33.333333333333336
-450.0   90.0   33.333333333333336
-500.0   90.0   33.333333333333336
-450.0   90.0   50.0
-500.0   60.0   50.0
-500.0   90.0   50.0
-450.0   90.0   50.0
-500.0   90.0   33.333333333333336
-500.0   60.0   50.0
-450.0   90.0   50.0
-450.0   60.0   50.0
-450.0   60.0   33.333333333333336
-500.0   60.0   50.0
-450.0   90.0   50.0
-450.0   60.0   33.333333333333336
-500.0   90.0   33.333333333333336
-500.0   90.0   0.0
-450.0   90.0   0.0
-500.0   120.0   0.0
-500.0   90.0   16.666666666666668
-450.0   90.0   0.0
-450.0   120.0   0.0
-500.0   120.0   0.0
-450.0   120.0   16.666666666666668
-500.0   90.0   16.666666666666668
-500.0   120.0   16.666666666666668
-450.0   120.0   16.666666666666668
-500.0   120.0   0.0
-500.0   90.0   16.666666666666668
-450.0   120.0   16.666666666666668
-450.0   90.0   16.666666666666668
-450.0   90.0   0.0
-500.0   90.0   16.666666666666668
-450.0   120.0   16.666666666666668
-450.0   90.0   0.0
-500.0   120.0   0.0
-500.0   90.0   16.666666666666668
-450.0   90.0   16.666666666666668
-500.0   120.0   16.666666666666668
-500.0   90.0   33.333333333333336
-450.0   90.0   16.666666666666668
-450.0   120.0   16.666666666666668
-500.0   120.0   16.666666666666668
-450.0   120.0   33.333333333333336
-500.0   90.0   33.333333333333336
-500.0   120.0   33.333333333333336
-450.0   120.0   33.333333333333336
-500.0   120.0   16.666666666666668
-500.0   90.0   33.333333333333336
-450.0   120.0   33.333333333333336
-450.0   90.0   33.333333333333336
-450.0   90.0   16.666666666666668
-500.0   90.0   33.333333333333336
-450.0   120.0   33.333333333333336
-450.0   90.0   16.666666666666668
-500.0   120.0   16.666666666666668
-500.0   90.0   33.333333333333336
-450.0   90.0   33.333333333333336
-500.0   120.0   33.333333333333336
-500.0   90.0   50.0
-450.0   90.0   33.333333333333336
-450.0   120.0   33.333333333333336
-500.0   120.0   33.333333333333336
-450.0   120.0   50.0
-500.0   90.0   50.0
-500.0   120.0   50.0
-450.0   120.0   50.0
-500.0   120.0   33.333333333333336
-500.0   90.0   50.0
-450.0   120.0   50.0
-450.0   90.0   50.0
-450.0   90.0   33.333333333333336
-500.0   90.0   50.0
-450.0   120.0   50.0
-450.0   90.0   33.333333333333336
-500.0   120.0   33.333333333333336
-500.0   120.0   0.0
-450.0   120.0   0.0
-500.0   150.0   0.0
-500.0   120.0   16.666666666666668
-450.0   120.0   0.0
-450.0   150.0   0.0
-500.0   150.0   0.0
-450.0   150.0   16.666666666666668
-500.0   120.0   16.666666666666668
-500.0   150.0   16.666666666666668
-450.0   150.0   16.666666666666668
-500.0   150.0   0.0
-500.0   120.0   16.666666666666668
-450.0   150.0   16.666666666666668
-450.0   120.0   16.666666666666668
-450.0   120.0   0.0
-500.0   120.0   16.666666666666668
-450.0   150.0   16.666666666666668
-450.0   120.0   0.0
-500.0   150.0   0.0
-500.0   120.0   16.666666666666668
-450.0   120.0   16.666666666666668
-500.0   150.0   16.666666666666668
-500.0   120.0   33.333333333333336
-450.0   120.0   16.666666666666668
-450.0   150.0   16.666666666666668
-500.0   150.0   16.666666666666668
-450.0   150.0   33.333333333333336
-500.0   120.0   33.333333333333336
-500.0   150.0   33.333333333333336
-450.0   150.0   33.333333333333336
-500.0   150.0   16.666666666666668
-500.0   120.0   33.333333333333336
-450.0   150.0   33.333333333333336
-450.0   120.0   33.333333333333336
-450.0   120.0   16.666666666666668
-500.0   120.0   33.333333333333336
-450.0   150.0   33.333333333333336
-450.0   120.0   16.666666666666668
-500.0   150.0   16.666666666666668
-500.0   120.0   33.333333333333336
-450.0   120.0   33.333333333333336
-500.0   150.0   33.333333333333336
-500.0   120.0   50.0
-450.0   120.0   33.333333333333336
-450.0   150.0   33.333333333333336
-500.0   150.0   33.333333333333336
-450.0   150.0   50.0
-500.0   120.0   50.0
-500.0   150.0   50.0
-450.0   150.0   50.0
-500.0   150.0   33.333333333333336
-500.0   120.0   50.0
-450.0   150.0   50.0
-450.0   120.0   50.0
-450.0   120.0   33.333333333333336
-500.0   120.0   50.0
-450.0   150.0   50.0
-450.0   120.0   33.333333333333336
-500.0   150.0   33.333333333333336
-450.0   0.0   0.0
-400.0   0.0   0.0
-450.0   30.0   0.0
-450.0   0.0   16.666666666666668
-400.0   0.0   0.0
-400.0   30.0   0.0
-450.0   30.0   0.0
-400.0   30.0   16.666666666666668
-450.0   0.0   16.666666666666668
-450.0   30.0   16.666666666666668
-400.0   30.0   16.666666666666668
-450.0   30.0   0.0
-450.0   0.0   16.666666666666668
-400.0   30.0   16.666666666666668
-400.0   0.0   16.666666666666668
-400.0   0.0   0.0
-450.0   0.0   16.666666666666668
-400.0   30.0   16.666666666666668
-400.0   0.0   0.0
-450.0   30.0   0.0
-450.0   0.0   16.666666666666668
-400.0   0.0   16.666666666666668
-450.0   30.0   16.666666666666668
[...]
          <PointData>  
             <DataArray type="Float64" NumberOfComponents="3" Name="Strains" format="ascii">   
-2.5528758638572224e-05   0.0   -1.694577054644554e-05
-2.5528758638572224e-05   0.0   -1.694577054644554e-05
-2.5528758638572224e-05   0.0   -1.694577054644554e-05
-2.5528758638572224e-05   0.0   -1.694577054644554e-05
-1.6225530274967184e-05   2.8027264975201334e-06   2.4124595807490775e-07
-1.6225530274967184e-05   2.8027264975201334e-06   2.4124595807490775e-07
-1.6225530274967184e-05   2.8027264975201334e-06   2.4124595807490775e-07
-1.6225530274967184e-05   2.8027264975201334e-06   2.4124595807490775e-07
-1.5891603429222135e-05   0.0   -1.6018646170484065e-05
-1.5891603429222135e-05   0.0   -1.6018646170484065e-05
-1.5891603429222135e-05   0.0   -1.6018646170484065e-05
-1.5891603429222135e-05   0.0   -1.6018646170484065e-05
-2.6700930800831263e-05   3.3755191901124763e-06   -2.841206520293009e-08
-2.6700930800831263e-05   3.3755191901124763e-06   -2.841206520293009e-08
-2.6700930800831263e-05   3.3755191901124763e-06   -2.841206520293009e-08
-2.6700930800831263e-05   3.3755191901124763e-06   -2.841206520293009e-08
-2.0710181033897146e-05   7.726036466345606e-07   -8.45124568400637e-06
-2.0710181033897146e-05   7.726036466345606e-07   -8.45124568400637e-06
-2.0710181033897146e-05   7.726036466345606e-07   -8.45124568400637e-06
-2.0710181033897146e-05   7.726036466345606e-07   -8.45124568400637e-06
-2.670093080083131e-05   0.0   -1.8043957684551555e-05
-2.670093080083131e-05   0.0   -1.8043957684551555e-05
-2.670093080083131e-05   0.0   -1.8043957684551555e-05
-2.670093080083131e-05   0.0   -1.8043957684551555e-05
-1.5891603429222135e-05   3.375519190112483e-06   1.9968994488645598e-06
-1.5891603429222135e-05   3.375519190112483e-06   1.9968994488645598e-06
-1.5891603429222135e-05   3.375519190112483e-06   1.9968994488645598e-06
-1.5891603429222135e-05   3.375519190112483e-06   1.9968994488645598e-06
-1.592232181139643e-05   0.0   -1.6406931503018612e-05
-1.592232181139643e-05   0.0   -1.6406931503018612e-05
-1.592232181139643e-05   0.0   -1.6406931503018612e-05
-1.592232181139643e-05   0.0   -1.6406931503018612e-05
-2.751766336839776e-05   3.6196570175015414e-06   7.468435481494253e-07
-2.751766336839776e-05   3.6196570175015414e-06   7.468435481494253e-07
-2.751766336839776e-05   3.6196570175015414e-06   7.468435481494253e-07
-2.751766336839776e-05   3.6196570175015414e-06   7.468435481494253e-07
-2.131162630611383e-05   1.3641884846107833e-06   -8.243270435922664e-06
-2.131162630611383e-05   1.3641884846107833e-06   -8.243270435922664e-06
-2.131162630611383e-05   1.3641884846107833e-06   -8.243270435922664e-06
-2.131162630611383e-05   1.3641884846107833e-06   -8.243270435922664e-06
-2.7517663368397808e-05   0.0   -1.857872571351954e-05
-2.7517663368397808e-05   0.0   -1.857872571351954e-05
-2.7517663368397808e-05   0.0   -1.857872571351954e-05
-2.7517663368397808e-05   0.0   -1.857872571351954e-05
-1.59223218113964e-05   3.6196570175015414e-06   2.9186377586503454e-06
-1.59223218113964e-05   3.6196570175015414e-06   2.9186377586503454e-06
-1.59223218113964e-05   3.6196570175015414e-06   2.9186377586503454e-06
-1.59223218113964e-05   3.6196570175015414e-06   2.9186377586503454e-06
-1.589805945659041e-05   0.0   -1.6508928572902613e-05
-1.589805945659041e-05   0.0   -1.6508928572902613e-05
-1.589805945659041e-05   0.0   -1.6508928572902613e-05
-1.589805945659041e-05   0.0   -1.6508928572902613e-05
-2.9291121793442717e-05   4.133826614414829e-06   3.3325460198690702e-06
-2.9291121793442717e-05   4.133826614414829e-06   3.3325460198690702e-06
-2.9291121793442717e-05   4.133826614414829e-06   3.3325460198690702e-06
-2.9291121793442717e-05   4.133826614414829e-06   3.3325460198690702e-06
-2.170786141249407e-05   1.7248309505141014e-06   -7.860823883371557e-06
-2.170786141249407e-05   1.7248309505141014e-06   -7.860823883371557e-06
-2.170786141249407e-05   1.7248309505141014e-06   -7.860823883371557e-06
-2.170786141249407e-05   1.7248309505141014e-06   -7.860823883371557e-06
-1.622553027496721e-05   0.0   -1.526413464793346e-05
-1.622553027496721e-05   0.0   -1.526413464793346e-05
-1.622553027496721e-05   0.0   -1.526413464793346e-05
-1.622553027496721e-05   0.0   -1.526413464793346e-05
-7.405498406541954e-06   1.0230348251085767e-06   4.973936117377525e-08
-7.405498406541954e-06   1.0230348251085767e-06   4.973936117377525e-08
-7.405498406541954e-06   1.0230348251085767e-06   4.973936117377525e-08
-7.405498406541954e-06   1.0230348251085767e-06   4.973936117377525e-08
-7.1087624160891075e-06   0.0   -1.5139740745717452e-05
-7.1087624160891075e-06   0.0   -1.5139740745717452e-05
-7.1087624160891075e-06   0.0   -1.5139740745717452e-05
-7.1087624160891075e-06   0.0   -1.5139740745717452e-05
-1.5891603429222135e-05   1.4648423746109781e-06   -1.3805778152623732e-06
-1.5891603429222135e-05   1.4648423746109781e-06   -1.3805778152623732e-06
-1.5891603429222135e-05   1.4648423746109781e-06   -1.3805778152623732e-06
-1.5891603429222135e-05   1.4648423746109781e-06   -1.3805778152623732e-06
-1.1667146345528146e-05   1.036615851799829e-07   -7.604631147760373e-06
-1.1667146345528146e-05   1.036615851799829e-07   -7.604631147760373e-06
-1.1667146345528146e-05   1.036615851799829e-07   -7.604631147760373e-06
-1.1667146345528146e-05   1.036615851799829e-07   -7.604631147760373e-06
-1.5891603429222122e-05   0.0   -1.601864617048405e-05
-1.5891603429222122e-05   0.0   -1.601864617048405e-05
-1.5891603429222122e-05   0.0   -1.601864617048405e-05
-1.5891603429222122e-05   0.0   -1.601864617048405e-05
-7.1087624160891075e-06   1.4648423746109747e-06   -5.01672390495786e-07
-7.1087624160891075e-06   1.4648423746109747e-06   -5.01672390495786e-07
-7.1087624160891075e-06   1.4648423746109747e-06   -5.01672390495786e-07
-7.1087624160891075e-06   1.4648423746109747e-06   -5.01672390495786e-07
-6.936343132387653e-06   0.0   -1.5326869693171444e-05
-6.936343132387653e-06   0.0   -1.5326869693171444e-05
-6.936343132387653e-06   0.0   -1.5326869693171444e-05
-6.936343132387653e-06   0.0   -1.5326869693171444e-05
-1.592232181139643e-05   1.8001030164119018e-06   -1.4303003713373388e-06
-1.592232181139643e-05   1.8001030164119018e-06   -1.4303003713373388e-06
-1.592232181139643e-05   1.8001030164119018e-06   -1.4303003713373388e-06
-1.592232181139643e-05   1.8001030164119018e-06   -1.4303003713373388e-06
-1.1413973280804879e-05   5.764803977604961e-07   -8.210041017799018e-06
-1.1413973280804879e-05   5.764803977604961e-07   -8.210041017799018e-06
-1.1413973280804879e-05   5.764803977604961e-07   -8.210041017799018e-06
-1.1413973280804879e-05   5.764803977604961e-07   -8.210041017799018e-06
-1.592232181139643e-05   0.0   -1.6406931503018612e-05
-1.592232181139643e-05   0.0   -1.6406931503018612e-05
-1.592232181139643e-05   0.0   -1.6406931503018612e-05
-1.592232181139643e-05   0.0   -1.6406931503018612e-05
-6.936343132387666e-06   1.8001030164119018e-06   -3.5023856149020006e-07
-6.936343132387666e-06   1.8001030164119018e-06   -3.5023856149020006e-07
-6.936343132387666e-06   1.8001030164119018e-06   -3.5023856149020006e-07
-6.936343132387666e-06   1.8001030164119018e-06   -3.5023856149020006e-07
-6.777012834806251e-06   0.0   -1.5250144078620138e-05
-6.777012834806251e-06   0.0   -1.5250144078620138e-05
-6.777012834806251e-06   0.0   -1.5250144078620138e-05
-6.777012834806251e-06   0.0   -1.5250144078620138e-05
-1.5898059456590397e-05   2.0979741571374373e-06   -1.3071842032623468e-06
-1.5898059456590397e-05   2.0979741571374373e-06   -1.3071842032623468e-06
-1.5898059456590397e-05   2.0979741571374373e-06   -1.3071842032623468e-06
-1.5898059456590397e-05   2.0979741571374373e-06   -1.3071842032623468e-06
-1.1349667323101337e-05   9.639895203320527e-07   -8.207446976994227e-06
-1.1349667323101337e-05   9.639895203320527e-07   -8.207446976994227e-06
-1.1349667323101337e-05   9.639895203320527e-07   -8.207446976994227e-06
-1.1349667323101337e-05   9.639895203320527e-07   -8.207446976994227e-06
-7.405498406541966e-06   0.0   -1.4650313752868311e-05
-7.405498406541966e-06   0.0   -1.4650313752868311e-05
-7.405498406541966e-06   0.0   -1.4650313752868311e-05
-7.405498406541966e-06   0.0   -1.4650313752868311e-05
9.15725554626597e-07   -1.3475004979053196e-07   -8.624571807950098e-07
9.15725554626597e-07   -1.3475004979053196e-07   -8.624571807950098e-07
9.15725554626597e-07   -1.3475004979053196e-07   -8.624571807950098e-07
9.15725554626597e-07   -1.3475004979053196e-07   -8.624571807950098e-07
1.1116672078368275e-06   0.0   -1.4982953037877262e-05
1.1116672078368275e-06   0.0   -1.4982953037877262e-05
1.1116672078368275e-06   0.0   -1.4982953037877262e-05
1.1116672078368275e-06   0.0   -1.4982953037877262e-05
-7.1087624160891075e-06   2.613128464002745e-07   -1.439024705840893e-06
-7.1087624160891075e-06   2.613128464002745e-07   -1.439024705840893e-06
-7.1087624160891075e-06   2.613128464002745e-07   -1.439024705840893e-06
-7.1087624160891075e-06   2.613128464002745e-07   -1.439024705840893e-06
-3.146915599352562e-06   -2.771994041741682e-07   -7.718995383390463e-06
-3.146915599352562e-06   -2.771994041741682e-07   -7.718995383390463e-06
-3.146915599352562e-06   -2.771994041741682e-07   -7.718995383390463e-06
-3.146915599352562e-06   -2.771994041741682e-07   -7.718995383390463e-06
-7.10876241608912e-06   0.0   -1.5139740745717478e-05
-7.10876241608912e-06   0.0   -1.5139740745717478e-05
-7.10876241608912e-06   0.0   -1.5139740745717478e-05
-7.10876241608912e-06   0.0   -1.5139740745717478e-05
1.1116672078368294e-06   2.613128464002745e-07   -1.2822369980007277e-06
1.1116672078368294e-06   2.613128464002745e-07   -1.2822369980007277e-06
1.1116672078368294e-06   2.613128464002745e-07   -1.2822369980007277e-06
1.1116672078368294e-06   2.613128464002745e-07   -1.2822369980007277e-06
1.2681802743199576e-06   0.0   -1.4960434973859983e-05
1.2681802743199576e-06   0.0   -1.4960434973859983e-05
1.2681802743199576e-06   0.0   -1.4960434973859983e-05
1.2681802743199576e-06   0.0   -1.4960434973859983e-05
-6.936343132387641e-06   6.107245321857691e-07   -1.6526640153254265e-06
-6.936343132387641e-06   6.107245321857691e-07   -1.6526640153254265e-06
-6.936343132387641e-06   6.107245321857691e-07   -1.6526640153254265e-06
-6.936343132387641e-06   6.107245321857691e-07   -1.6526640153254265e-06
-2.920291070884575e-06   1.494214765478916e-07   -8.069302284447826e-06
-2.920291070884575e-06   1.494214765478916e-07   -8.069302284447826e-06
-2.920291070884575e-06   1.494214765478916e-07   -8.069302284447826e-06
-2.920291070884575e-06   1.494214765478916e-07   -8.069302284447826e-06
-6.936343132387666e-06   0.0   -1.532686969317147e-05
-6.936343132387666e-06   0.0   -1.532686969317147e-05
-6.936343132387666e-06   0.0   -1.532686969317147e-05
-6.936343132387666e-06   0.0   -1.532686969317147e-05
1.26818027431996e-06   6.107245321857725e-07   -1.2862292960139685e-06
1.26818027431996e-06   6.107245321857725e-07   -1.2862292960139685e-06
1.26818027431996e-06   6.107245321857725e-07   -1.2862292960139685e-06
1.26818027431996e-06   6.107245321857725e-07   -1.2862292960139685e-06
1.4740891863786777e-06   0.0   -1.4641387646053306e-05
1.4740891863786777e-06   0.0   -1.4641387646053306e-05
1.4740891863786777e-06   0.0   -1.4641387646053306e-05
1.4740891863786777e-06   0.0   -1.4641387646053306e-05
-6.777012834806245e-06   1.0145940542780295e-06   -1.4983073766452546e-06
-6.777012834806245e-06   1.0145940542780295e-06   -1.4983073766452546e-06
-6.777012834806245e-06   1.0145940542780295e-06   -1.4983073766452546e-06
-6.777012834806245e-06   1.0145940542780295e-06   -1.4983073766452546e-06
-2.731126973004488e-06   5.712350392651148e-07   -7.975435070640427e-06
-2.731126973004488e-06   5.712350392651148e-07   -7.975435070640427e-06
-2.731126973004488e-06   5.712350392651148e-07   -7.975435070640427e-06
-2.731126973004488e-06   5.712350392651148e-07   -7.975435070640427e-06
9.157255546265986e-07   0.0   -1.4731163782742629e-05
9.157255546265986e-07   0.0   -1.4731163782742629e-05
9.157255546265986e-07   0.0   -1.4731163782742629e-05
9.157255546265986e-07   0.0   -1.4731163782742629e-05
9.96028312651423e-06   -1.1683137618330702e-06   -3.5788942002974245e-07
9.96028312651423e-06   -1.1683137618330702e-06   -3.5788942002974245e-07
9.96028312651423e-06   -1.1683137618330702e-06   -3.5788942002974245e-07
9.96028312651423e-06   -1.1683137618330702e-06   -3.5788942002974245e-07
9.995552690657512e-06   0.0   -1.5509021003001018e-05
9.995552690657512e-06   0.0   -1.5509021003001018e-05
9.995552690657512e-06   0.0   -1.5509021003001018e-05
9.995552690657512e-06   0.0   -1.5509021003001018e-05
1.1116672078368313e-06   -8.767799418728384e-07   -1.764772331761831e-07
1.1116672078368313e-06   -8.767799418728384e-07   -1.764772331761831e-07
1.1116672078368313e-06   -8.767799418728384e-07   -1.764772331761831e-07
1.1116672078368313e-06   -8.767799418728384e-07   -1.764772331761831e-07
5.455639122642055e-06   -6.482143502153231e-07   -7.553569779512724e-06
5.455639122642055e-06   -6.482143502153231e-07   -7.553569779512724e-06
5.455639122642055e-06   -6.482143502153231e-07   -7.553569779512724e-06
5.455639122642055e-06   -6.482143502153231e-07   -7.553569779512724e-06
1.1116672078368313e-06   0.0   -1.4982953037877315e-05
1.1116672078368313e-06   0.0   -1.4982953037877315e-05
1.1116672078368313e-06   0.0   -1.4982953037877315e-05
1.1116672078368313e-06   0.0   -1.4982953037877315e-05
9.995552690657512e-06   -8.767799418728384e-07   -7.025451982998881e-07
9.995552690657512e-06   -8.767799418728384e-07   -7.025451982998881e-07
9.995552690657512e-06   -8.767799418728384e-07   -7.025451982998881e-07
9.995552690657512e-06   -8.767799418728384e-07   -7.025451982998881e-07
9.967874774133045e-06   0.0   -1.528768383031484e-05
9.967874774133045e-06   0.0   -1.528768383031484e-05
9.967874774133045e-06   0.0   -1.528768383031484e-05
9.967874774133045e-06   0.0   -1.528768383031484e-05
1.26818027431996e-06   -5.454147607580522e-07   -4.6094414083820234e-07
1.26818027431996e-06   -5.454147607580522e-07   -4.6094414083820234e-07
1.26818027431996e-06   -5.454147607580522e-07   -4.6094414083820234e-07
1.26818027431996e-06   -5.454147607580522e-07   -4.6094414083820234e-07
5.539770990984938e-06   -2.5394232703127005e-07   -7.75514546218256e-06
5.539770990984938e-06   -2.5394232703127005e-07   -7.75514546218256e-06
5.539770990984938e-06   -2.5394232703127005e-07   -7.75514546218256e-06
5.539770990984938e-06   -2.5394232703127005e-07   -7.75514546218256e-06
1.2681802743199587e-06   0.0   -1.4960434973859996e-05
1.2681802743199587e-06   0.0   -1.4960434973859996e-05
1.2681802743199587e-06   0.0   -1.4960434973859996e-05
1.2681802743199587e-06   0.0   -1.4960434973859996e-05
9.967874774133045e-06   -5.454147607580522e-07   -7.88192997293033e-07
9.967874774133045e-06   -5.454147607580522e-07   -7.88192997293033e-07
9.967874774133045e-06   -5.454147607580522e-07   -7.88192997293033e-07
9.967874774133045e-06   -5.454147607580522e-07   -7.88192997293033e-07
1.0175461959670095e-05   0.0   -1.470202126999507e-05
1.0175461959670095e-05   0.0   -1.470202126999507e-05
1.0175461959670095e-05   0.0   -1.470202126999507e-05
1.0175461959670095e-05   0.0   -1.470202126999507e-05
1.4740891863786802e-06   -1.0105603990289992e-07   -1.3909969056764126e-07
1.4740891863786802e-06   -1.0105603990289992e-07   -1.3909969056764126e-07
1.4740891863786802e-06   -1.0105603990289992e-07   -1.3909969056764126e-07
1.4740891863786802e-06   -1.0105603990289992e-07   -1.3909969056764126e-07
5.721821116995023e-06   2.15344753220782e-07   -7.408493384135747e-06
5.721821116995023e-06   2.15344753220782e-07   -7.408493384135747e-06
5.721821116995023e-06   2.15344753220782e-07   -7.408493384135747e-06
5.721821116995023e-06   2.15344753220782e-07   -7.408493384135747e-06
9.96028312651423e-06   0.0   -1.543215203984247e-05
9.96028312651423e-06   0.0   -1.543215203984247e-05
9.96028312651423e-06   0.0   -1.543215203984247e-05
9.96028312651423e-06   0.0   -1.543215203984247e-05
2.2579600095542453e-05   -2.9734822732021105e-06   3.815953544616764e-06
2.2579600095542453e-05   -2.9734822732021105e-06   3.815953544616764e-06
2.2579600095542453e-05   -2.9734822732021105e-06   3.815953544616764e-06
2.2579600095542453e-05   -2.9734822732021105e-06   3.815953544616764e-06
2.122869557556804e-05   0.0   -1.7021432787981138e-05
2.122869557556804e-05   0.0   -1.7021432787981138e-05
2.122869557556804e-05   0.0   -1.7021432787981138e-05
2.122869557556804e-05   0.0   -1.7021432787981138e-05
9.995552690657512e-06   -2.5206863083001954e-06   3.212883805183192e-06
9.995552690657512e-06   -2.5206863083001954e-06   3.212883805183192e-06
9.995552690657512e-06   -2.5206863083001954e-06   3.212883805183192e-06
9.995552690657512e-06   -2.5206863083001954e-06   3.212883805183192e-06
1.5594489351041134e-05   -1.3244006234488875e-06   -6.836448706366957e-06
1.5594489351041134e-05   -1.3244006234488875e-06   -6.836448706366957e-06
1.5594489351041134e-05   -1.3244006234488875e-06   -6.836448706366957e-06
1.5594489351041134e-05   -1.3244006234488875e-06   -6.836448706366957e-06
9.995552690657504e-06   0.0   -1.5509021003001005e-05
9.995552690657504e-06   0.0   -1.5509021003001005e-05
9.995552690657504e-06   0.0   -1.5509021003001005e-05
9.995552690657504e-06   0.0   -1.5509021003001005e-05
2.1228695575567966e-05   -2.5206863083001886e-06   1.7004720202030624e-06
2.1228695575567966e-05   -2.5206863083001886e-06   1.7004720202030624e-06
2.1228695575567966e-05   -2.5206863083001886e-06   1.7004720202030624e-06
2.1228695575567966e-05   -2.5206863083001886e-06   1.7004720202030624e-06
2.061257427058563e-05   0.0   -1.6667713757683848e-05
2.061257427058563e-05   0.0   -1.6667713757683848e-05
2.061257427058563e-05   0.0   -1.6667713757683848e-05
2.061257427058563e-05   0.0   -1.6667713757683848e-05
9.967874774133045e-06   -2.300049878948348e-06   2.4534819971061257e-06
9.967874774133045e-06   -2.300049878948348e-06   2.4534819971061257e-06
9.967874774133045e-06   -2.300049878948348e-06   2.4534819971061257e-06
9.967874774133045e-06   -2.300049878948348e-06   2.4534819971061257e-06
1.530406348062156e-05   -9.65577295569025e-07   -7.240849397068989e-06
1.530406348062156e-05   -9.65577295569025e-07   -7.240849397068989e-06
1.530406348062156e-05   -9.65577295569025e-07   -7.240849397068989e-06
1.530406348062156e-05   -9.65577295569025e-07   -7.240849397068989e-06
9.967874774133045e-06   0.0   -1.528768383031484e-05
9.967874774133045e-06   0.0   -1.528768383031484e-05
9.967874774133045e-06   0.0   -1.528768383031484e-05
9.967874774133045e-06   0.0   -1.528768383031484e-05
2.0612574270585558e-05   -2.3000498789483414e-06   1.0734520697371148e-06
2.0612574270585558e-05   -2.3000498789483414e-06   1.0734520697371148e-06
2.0612574270585558e-05   -2.3000498789483414e-06   1.0734520697371148e-06
2.0612574270585558e-05   -2.3000498789483414e-06   1.0734520697371148e-06
1.9684766826099743e-05   0.0   -1.5768073434094135e-05
1.9684766826099743e-05   0.0   -1.5768073434094135e-05
1.9684766826099743e-05   0.0   -1.5768073434094135e-05
1.9684766826099743e-05   0.0   -1.5768073434094135e-05
1.0175461959670077e-05   -1.7767536068317687e-06   1.1468201740543358e-06
1.0175461959670077e-05   -1.7767536068317687e-06   1.1468201740543358e-06
1.0175461959670077e-05   -1.7767536068317687e-06   1.1468201740543358e-06
1.0175461959670077e-05   -1.7767536068317687e-06   1.1468201740543358e-06
1.4826320800116394e-05   -4.0032466981607963e-07   -7.430468588898903e-06
1.4826320800116394e-05   -4.0032466981607963e-07   -7.430468588898903e-06
1.4826320800116394e-05   -4.0032466981607963e-07   -7.430468588898903e-06
1.4826320800116394e-05   -4.0032466981607963e-07   -7.430468588898903e-06
-2.2008279084305226e-05   2.8027264975201267e-06   -1.4567431128887007e-05
-2.2008279084305226e-05   2.8027264975201267e-06   -1.4567431128887007e-05