<?xml version="1.0"?> 
<VTKFile type="UnstructuredGrid"> 
   <UnstructuredGrid> 
      <Piece NumberOfPoints="6000"  NumberOfCells="1500">  
          <Points>  
             <DataArray type="Float64" NumberOfComponents="3" format="ascii">   
-500.0   0.0   0.0
-450.0   0.0   0.0
-500.0   30.0   0.0
-500.0   0.0   16.666666666666668
-450.0   0.0   0.0
-450.0   30.0   0.0
-500.0   30.0   0.0
-450.0   30.0   16.666666666666668
-500.0   0.0   16.666666666666668
-500.0   30.0   16.666666666666668
-450.0   30.0   16.666666666666668
-500.0   30.0   0.0
-500.0   0.0   16.666666666666668
-450.0   30.0   16.666666666666668
-450.0   0.0   16.666666666666668
-450.0   0.0   0.0
-500.0   0.0   16.666666666666668
-450.0   30.0   16.666666666666668
-450.0   0.0   0.0
-500.0   30.0   0.0
-500.0   0.0   16.666666666666668
-450.0   0.0   16.666666666666668
-500.0   30.0   16.666666666666668
-500.0   0.0   33.333333333333336
-450.0   0.0   16.666666666666668
-450.0   30.0   16.666666666666668
-500.0   30.0   16.666666666666668
-450.0   30.0   33.333333333333336
-500.0   0.0   33.333333333333336
-500.0   30.0   33.333333333333336
-450.0   30.0   33.333333333333336
-500.0   30.0   16.666666666666668
-500.0   0.0   33.333333333333336
-450.0   30.0   33.333333333333336
-450.0   0.0   33.333333333333336
-450.0   0.0   16.666666666666668
-500.0   0.0   33.333333333333336
-450.0   30.0   33.333333333333336
-450.0   0.0   16.666666666666668
-500.0   30.0   16.666666666666668
-500.0   0.0   33.333333333333336
-450.0   0.0   33.333333333333336
-500.0   30.0   33.333333333333336
-500.0   0.0   50.0
-450.0   0.0   33.333333333333336
-450.0   30.0   33.333333333333336
-500.0   30.0   33.333333333333336
-450.0   30.0   50.0
-500.0   0.0   50.0
-500.0   30.0   50.0
-450.0   30.0   50.0
-500.0   30.0   33.333333333333336
-500.0   0.0   50.0
-450.0   30.0   50.0
-450.0   0.0   50.0
-450.0   0.0   33.333333333333336
-500.0   0.0   50.0
-450.0   30.0   50.0
-450.0   0.0   33.333333333333336
-500.0   30.0   33.333333333333336
-500.0   30.0   0.0
-450.0   30.0   0.0
-500.0   60.0   0.0
-500.0   30.0   16.666666666666668
-450.0   30.0   0.0
-450.0   60.0   0.0
-500.0   60.0   0.0
-450.0   60.0   16.666666666666668
-500.0   30.0   16.666666666666668
-500.0   60.0   16.666666666666668
-450.0   60.0   16.666666666666668
-500.0   60.0   0.0
-500.0   30.0   16.666666666666668
-450.0   60.0   16.666666666666668
-450.0   30.0   16.666666666666668
-450.0   30.0   0.0
-500.0   30.0   16.666666666666668
-450.0   60.0   16.666666666666668
-450.0   30.0   0.0
-500.0   60.0   0.0
-500.0   30.0   16.666666666666668
-450.0   30.0   16.666666666666668
-500.0   60.0   16.666666666666668
-500.0   30.0   33.333333333333336
-450.0   30.0   16.666666666666668
-450.0   60.0   16.666666666666668
-500.0   60.0   16.666666666666668
-450.0   60.0   33.333333333333336
-500.0   30.0   33.333333333333336
-500.0   60.0   33.333333333333336
-450.0   60.0   33.333333333333336
-500.0   60.0   16.666666666666668
-500.0   30.0   33.333333333333336
-450.0   60.0   33.333333333333336
-450.0   30.0   33.333333333333336
-450.0   30.0   16.666666666666668
-500.0   30.0   33.333333333333336
-450.0   60.0   33.333333333333336
-450.0   30.0   16.666666666666668
-500.0   60.0   16.666666666666668
-500.0   30.0   33.333333333333336
-450.0   30.0   33.333333333333336
-500.0   60.0   33.333333333333336
-500.0   30.0   50.0
-450.0   30.0   33.333333333333336
-450.0   60.0   33.333333333333336
-500.0   60.0   33.333333333333336
-450.0   60.0   50.0
-500.0   30.0   50.0
-500.0   60.0   50.0
-450.0   60.0   50.0
-500.0   60.0   33.333333333333336
-500.0   30.0   50.0
-450.0   60.0   50.0
-450.0   30.0   50.0
-450.0   30.0   33.333333333333336
-500.0   30.0   50.0
-450.0   60.0   50.0
-450.0   30.0   33.333333333333336
-500.0   60.0   33.333333333333336
-500.0   60.0   0.0
-450.0   60.0   0.0
-500.0   90.0   0.0
-500.0   60.0   16.666666666666668
-450.0   60.0   0.0
-450.0   90.0   0.0
-500.0   90.0   0.0
-450.0   90.0   16.666666666666668
-500.0   60.0   16.666666666666668
-500.0   90.0   16.666666666666668
-450.0   90.0   16.666666666666668
-500.0   90.0   0.0
-500.0   60.0   16.666666666666668
-450.0   90.0   16.666666666666668
-450.0   60.0   16.666666666666668
-450.0   60.0   0.0
-500.0   60.0   16.666666666666668
-450.0   90.0   16.666666666666668
-450.0   60.0   0.0
-500.0   90.0   0.0
-500.0   60.0   16.666666666666668
-450.0   60.0   16.666666666666668
-500.0   90.0   16.666666666666668
-500.0   60.0   33.333333333333336
-450.0   60.0   16.666666666666668
-450.0   90.0   16.666666666666668
-500.0   90.0   16.666666666666668
-450.0   90.0   33.333333333333336
-500.0   60.0   33.333333333333336
-500.0   90.0   33.333333333333336
-450.0   90.0   33.333333333333336
-500.0   90.0   16.666666666666668
-500.0   60.0   33.333333333333336
-450.0   90.0   33.333333333333336
-450.0   60.0   33.333333333333336
-450.0   60.0   16.666666666666668
-500.0   60.0   33.333333333333336
-450.0   90.0   33.333333333333336
-450.0   60.0   16.666666666666668
-500.0   90.0   16.666666666666668
-500.0   60.0   33.333333333333336
-450.0   60.0   33.333333333333336
-500.0   90.0   33.333333333333336
-500.0   60.0   50.0
-450.0   60.0   33.333333333333336
-450.0   90.0   33.333333333333336
-500.0   90.0   33.333333333333336
-450.0   90.0   50.0
-500.0   60.0   50.0
-500.0   90.0   50.0
-450.0   90.0   50.0
-500.0   90.0   33.333333333333336
-500.0   60.0   50.0
-450.0   90.0   50.0
-450.0   60.0   50.0
-450.0   60.0   33.333333333333336
-500.0   60.0   50.0
-450.0   90.0   50.0
-450.0   60.0   33.333333333333336
-500.0   90.0   33.333333333333336
-500.0   90.0   0.0
-450.0   90.0   0.0
-500.0   120.0   0.0
-500.0   90.0   16.666666666666668
-450.0   90.0   0.0
-450.0   120.0   0.0
-500.0   120.0   0.0
-450.0   120.0   16.666666666666668
-500.0   90.0   16.666666666666668
-500.0   120.0   16.666666666666668
-450.0   120.0   16.666666666666668
-500.0   120.0   0.0
-500.0   90.0   16.666666666666668
-450.0   120.0   16.666666666666668
-450.0   90.0   16.666666666666668
-450.0   90.0   0.0
-500.0   90.0   16.666666666666668
-450.0   120.0   16.666666666666668
-450.0   90.0   0.0
-500.0   120.0   0.0
-500.0   90.0   16.666666666666668
-450.0   90.0   16.666666666666668
-500.0   120.0   16.666666666666668
-500.0   90.0   33.333333333333336
-450.0   90.0   16.666666666666668
-450.0   120.0   16.666666666666668
-500.0   120.0   16.666666666666668
-450.0   120.0   33.333333333333336
-500.0   90.0   33.333333333333336
-500.0   120.0   33.333333333333336
-450.0   120.0   33.333333333333336
-500.0   120.0   16.666666666666668
-500.0   90.0   33.333333333333336
-450.0   120.0   33.333333333333336
-450.0   90.0   33.333333333333336
-450.0   90.0   16.666666666666668
-500.0   90.0   33.333333333333336
-450.0   120.0   33.333333333333336
-450.0   90.0   16.666666666666668
-500.0   120.0   16.666666666666668
-500.0   90.0   33.333333333333336
-450.0   90.0   33.333333333333336
-500.0   120.0   33.333333333333336
-500.0   90.0   50.0
-450.0   90.0   33.333333333333336
-450.0   120.0   33.333333333333336
-500.0   120.0   33.333333333333336
-450.0   120.0   50.0
-500.0   90.0   50.0
-500.0   120.0   50.0
-450.0   120.0   50.0
-500.0   120.0   33.333333333333336
-500.0   90.0   50.0
-450.0   120.0   50.0
-450.0   90.0   50.0
-450.0   90.0   33.333333333333336
-500.0   90.0   50.0
-450.0   120.0   50.0
-450.0   90.0   33.333333333333336
-500.0   120.0   33.333333333333336
-500.0   120.0   0.0
-450.0   120.0   0.0
-500.0   150.0   0.0
-500.0   120.0   16.666666666666668
-450.0   120.0   0.0
-450.0   150.0   0.0
-500.0   150.0   0.0
-450.0   150.0   16.666666666666668
-500.0   120.0   16.666666666666668
-500.0   150.0   16.666666666666668
-450.0   150.0   16.666666666666668
-500.0   150.0   0.0
-500.0   120.0   16.666666666666668
-450.0   150.0   16.666666666666668
-450.0   120.0   16.666666666666668
-450.0   120.0   0.0
-500.0   120.0   16.666666666666668
-450.0   150.0   16.666666666666668
-450.0   120.0   0.0
-500.0   150.0   0.0
-500.0   120.0   16.666666666666668
-450.0   120.0   16.666666666666668
-500.0   150.0   16.666666666666668
-500.0   120.0   33.333333333333336
-450.0   120.0   16.666666666666668
-450.0   150.0   16.666666666666668
-500.0   150.0   16.666666666666668
-450.0   150.0   33.333333333333336
-500.0   120.0   33.333333333333336
-500.0   150.0   33.333333333333336
-450.0   150.0   33.333333333333336
-500.0   150.0   16.666666666666668
-500.0   120.0   33.333333333333336
-450.0   150.0   33.333333333333336
-450.0   120.0   33.333333333333336
-450.0   120.0   16.666666666666668
-500.0   120.0   33.333333333333336
-450.0   150.0   33.333333333333336
-450.0   120.0   16.666666666666668
-500.0   150.0   16.666666666666668
-500.0   120.0   33.333333333333336
-450.0   120.0   33.333333333333336
-500.0   150.0   33.333333333333336
-500.0   120.0   50.0
-450.0   120.0   33.333333333333336
-450.0   150.0   33.333333333333336
-500.0   150.0   33.333333333333336
-450.0   150.0   50.0
-500.0   120.0   50.0
-500.0   150.0   50.0
-450.0   150.0   50.0
-500.0   150.0   33.333333333333336
-500.0   120.0   50.0
-450.0   150.0   50.0
-450.0   120.0   50.0
-450.0   120.0   33.333333333333336
-500.0   120.0   50.0
-450.0   150.0   50.0
-450.0   120.0   33.333333333333336
-500.0   150.0   33.333333333333336
-450.0   0.0   0.0
-400.0   0.0   0.0
-450.0   30.0   0.0
-450.0   0.0   16.666666666666668
-400.0   0.0   0.0
-400.0   30.0   0.0
-450.0   30.0   0.0
-400.0   30.0   16.666666666666668
-450.0   0.0   16.666666666666668
-450.0   30.0   16.666666666666668
-400.0   30.0   16.666666666666668
-450.0   30.0   0.0
-450.0   0.0   16.666666666666668
-400.0   30.0   16.666666666666668
-400.0   0.0   16.666666666666668
-400.0   0.0   0.0
-450.0   0.0   16.666666666666668
-400.0   30.0   16.666666666666668
-400.0   0.0   0.0
-450.0   30.0   0.0
-450.0   0.0   16.666666666666668
-400.0   0.0   16.666666666666668
-450.0   30.0   16.666666666666668
[...]
          <PointData>  
             <DataArray type="Float64" NumberOfComponents="3" Name="Strains" format="ascii">   
-7.559751794597677e-05   0.0   -4.966725020005321e-05
-7.559751794597677e-05   0.0   -4.966725020005321e-05
-7.559751794597677e-05   0.0   -4.966725020005321e-05
-7.559751794597677e-05   0.0   -4.966725020005321e-05
-4.809897554787479e-05   8.367793695235047e-06   1.184330013924358e-06
-4.809897554787479e-05   8.367793695235047e-06   1.184330013924358e-06
-4.809897554787479e-05   8.367793695235047e-06   1.184330013924358e-06
-4.809897554787479e-05   8.367793695235047e-06   1.184330013924358e-06
-4.714428092673378e-05   0.0   -4.68829957118117e-05
-4.714428092673378e-05   0.0   -4.68829957118117e-05
-4.714428092673378e-05   0.0   -4.68829957118117e-05
-4.714428092673378e-05   0.0   -4.68829957118117e-05
-7.91121108639204e-05   1.0045100136217951e-05   3.6966076843544696e-07
-7.91121108639204e-05   1.0045100136217951e-05   3.6966076843544696e-07
-7.91121108639204e-05   1.0045100136217951e-05   3.6966076843544696e-07
-7.91121108639204e-05   1.0045100136217951e-05   3.6966076843544696e-07
-6.137089943635518e-05   2.320212073534594e-06   -2.456409210656322e-05
-6.137089943635518e-05   2.320212073534594e-06   -2.456409210656322e-05
-6.137089943635518e-05   2.320212073534594e-06   -2.456409210656322e-05
-6.137089943635518e-05   2.320212073534594e-06   -2.456409210656322e-05
-7.911211086392054e-05   0.0   -5.291005579354248e-05
-7.911211086392054e-05   0.0   -5.291005579354248e-05
-7.911211086392054e-05   0.0   -5.291005579354248e-05
-7.911211086392054e-05   0.0   -5.291005579354248e-05
-4.714428092673378e-05   1.0045100136217965e-05   6.396720850166231e-06
-4.714428092673378e-05   1.0045100136217965e-05   6.396720850166231e-06
-4.714428092673378e-05   1.0045100136217965e-05   6.396720850166231e-06
-4.714428092673378e-05   1.0045100136217965e-05   6.396720850166231e-06
-4.7273502812163006e-05   0.0   -4.8029521847660635e-05
-4.7273502812163006e-05   0.0   -4.8029521847660635e-05
-4.7273502812163006e-05   0.0   -4.8029521847660635e-05
-4.7273502812163006e-05   0.0   -4.8029521847660635e-05
-8.157866113598333e-05   1.0762715138609765e-05   2.6881129422075733e-06
-8.157866113598333e-05   1.0762715138609765e-05   2.6881129422075733e-06
-8.157866113598333e-05   1.0762715138609765e-05   2.6881129422075733e-06
-8.157866113598333e-05   1.0762715138609765e-05   2.6881129422075733e-06
-6.319280683804166e-05   4.067111621568197e-06   -2.3937615444136888e-05
-6.319280683804166e-05   4.067111621568197e-06   -2.3937615444136888e-05
-6.319280683804166e-05   4.067111621568197e-06   -2.3937615444136888e-05
-6.319280683804166e-05   4.067111621568197e-06   -2.3937615444136888e-05
-8.157866113598347e-05   0.0   -5.448715093082651e-05
-8.157866113598347e-05   0.0   -5.448715093082651e-05
-8.157866113598347e-05   0.0   -5.448715093082651e-05
-8.157866113598347e-05   0.0   -5.448715093082651e-05
-4.7273502812162924e-05   1.0762715138609765e-05   9.145742025373432e-06
-4.7273502812162924e-05   1.0762715138609765e-05   9.145742025373432e-06
-4.7273502812162924e-05   1.0762715138609765e-05   9.145742025373432e-06
-4.7273502812162924e-05   1.0762715138609765e-05   9.145742025373432e-06
-4.724444631024685e-05   0.0   -4.8324722044893006e-05
-4.724444631024685e-05   0.0   -4.8324722044893006e-05
-4.724444631024685e-05   0.0   -4.8324722044893006e-05
-4.724444631024685e-05   0.0   -4.8324722044893006e-05
-8.689599485992318e-05   1.2263762306799676e-05   1.0402934820487932e-05
-8.689599485992318e-05   1.2263762306799676e-05   1.0402934820487932e-05
-8.689599485992318e-05   1.2263762306799676e-05   1.0402934820487932e-05
-8.689599485992318e-05   1.2263762306799676e-05   1.0402934820487932e-05
-6.441155372311505e-05   5.135357404944579e-06   -2.2794090799745847e-05
-6.441155372311505e-05   5.135357404944579e-06   -2.2794090799745847e-05
-6.441155372311505e-05   5.135357404944579e-06   -2.2794090799745847e-05
-6.441155372311505e-05   5.135357404944579e-06   -2.2794090799745847e-05
-4.809897554787487e-05   0.0   -4.4646573982912184e-05
-4.809897554787487e-05   0.0   -4.4646573982912184e-05
-4.809897554787487e-05   0.0   -4.4646573982912184e-05
-4.809897554787487e-05   0.0   -4.4646573982912184e-05
-2.1908850886843783e-05   3.067634500051759e-06   8.442144855039908e-07
-2.1908850886843783e-05   3.067634500051759e-06   8.442144855039908e-07
-2.1908850886843783e-05   3.067634500051759e-06   8.442144855039908e-07
-2.1908850886843783e-05   3.067634500051759e-06   8.442144855039908e-07
-2.1067984187190675e-05   0.0   -4.426120294235474e-05
-2.1067984187190675e-05   0.0   -4.426120294235474e-05
-2.1067984187190675e-05   0.0   -4.426120294235474e-05
-2.1067984187190675e-05   0.0   -4.426120294235474e-05
-4.714428092673378e-05   4.369654615761471e-06   -3.422501145906588e-06
-4.714428092673378e-05   4.369654615761471e-06   -3.422501145906588e-06
-4.714428092673378e-05   4.369654615761471e-06   -3.422501145906588e-06
-4.714428092673378e-05   4.369654615761471e-06   -3.422501145906588e-06
-3.458347986753273e-05   3.211425337977994e-07   -2.192806232872998e-05
-3.458347986753273e-05   3.211425337977994e-07   -2.192806232872998e-05
-3.458347986753273e-05   3.211425337977994e-07   -2.192806232872998e-05
-3.458347986753273e-05   3.211425337977994e-07   -2.192806232872998e-05
-4.714428092673374e-05   0.0   -4.688299571181166e-05
-4.714428092673374e-05   0.0   -4.688299571181166e-05
-4.714428092673374e-05   0.0   -4.688299571181166e-05
-4.714428092673374e-05   0.0   -4.688299571181166e-05
-2.1067984187190675e-05   4.369654615761457e-06   -8.007083764497013e-07
-2.1067984187190675e-05   4.369654615761457e-06   -8.007083764497013e-07
-2.1067984187190675e-05   4.369654615761457e-06   -8.007083764497013e-07
-2.1067984187190675e-05   4.369654615761457e-06   -8.007083764497013e-07
-2.059420146759241e-05   0.0   -4.4816028391269234e-05
-2.059420146759241e-05   0.0   -4.4816028391269234e-05
-2.059420146759241e-05   0.0   -4.4816028391269234e-05
-2.059420146759241e-05   0.0   -4.4816028391269234e-05
-4.7273502812163006e-05   5.35582242731888e-06   -3.564019606709697e-06
-4.7273502812163006e-05   5.35582242731888e-06   -3.564019606709697e-06
-4.7273502812163006e-05   5.35582242731888e-06   -3.564019606709697e-06
-4.7273502812163006e-05   5.35582242731888e-06   -3.564019606709697e-06
-3.386924119716304e-05   1.722472767118654e-06   -2.3724445835589318e-05
-3.386924119716304e-05   1.722472767118654e-06   -2.3724445835589318e-05
-3.386924119716304e-05   1.722472767118654e-06   -2.3724445835589318e-05
-3.386924119716304e-05   1.722472767118654e-06   -2.3724445835589318e-05
-4.7273502812163006e-05   0.0   -4.8029521847660635e-05
-4.7273502812163006e-05   0.0   -4.8029521847660635e-05
-4.7273502812163006e-05   0.0   -4.8029521847660635e-05
-4.7273502812163006e-05   0.0   -4.8029521847660635e-05
-2.0594201467592446e-05   5.35582242731888e-06   -3.5052615031837053e-07
-2.0594201467592446e-05   5.35582242731888e-06   -3.5052615031837053e-07
-2.0594201467592446e-05   5.35582242731888e-06   -3.5052615031837053e-07
-2.0594201467592446e-05   5.35582242731888e-06   -3.5052615031837053e-07
-2.0162168465860095e-05   0.0   -4.4584916035513704e-05
-2.0162168465860095e-05   0.0   -4.4584916035513704e-05
-2.0162168465860095e-05   0.0   -4.4584916035513704e-05
-2.0162168465860095e-05   0.0   -4.4584916035513704e-05
-4.724444631024681e-05   6.233010015632102e-06   -3.1875923042484083e-06
-4.724444631024681e-05   6.233010015632102e-06   -3.1875923042484083e-06
-4.724444631024681e-05   6.233010015632102e-06   -3.1875923042484083e-06
-4.724444631024681e-05   6.233010015632102e-06   -3.1875923042484083e-06
-3.3717835639011535e-05   2.8705048434557475e-06   -2.3714440319668077e-05
-3.3717835639011535e-05   2.8705048434557475e-06   -2.3714440319668077e-05
-3.3717835639011535e-05   2.8705048434557475e-06   -2.3714440319668077e-05
-3.3717835639011535e-05   2.8705048434557475e-06   -2.3714440319668077e-05
-2.190885088684382e-05   0.0   -4.2805993282881124e-05
-2.190885088684382e-05   0.0   -4.2805993282881124e-05
-2.190885088684382e-05   0.0   -4.2805993282881124e-05
-2.190885088684382e-05   0.0   -4.2805993282881124e-05
2.8327063272826733e-06   -3.9402000814895636e-07   -1.8064765975596365e-06
2.8327063272826733e-06   -3.9402000814895636e-07   -1.8064765975596365e-06
2.8327063272826733e-06   -3.9402000814895636e-07   -1.8064765975596365e-06
2.8327063272826733e-06   -3.9402000814895636e-07   -1.8064765975596365e-06
3.371160761880567e-06   0.0   -4.379613021914276e-05
3.371160761880567e-06   0.0   -4.379613021914276e-05
3.371160761880567e-06   0.0   -4.379613021914276e-05
3.371160761880567e-06   0.0   -4.379613021914276e-05
-2.1067984187190675e-05   7.751212053531866e-07   -3.529294693902669e-06
-2.1067984187190675e-05   7.751212053531866e-07   -3.529294693902669e-06
-2.1067984187190675e-05   7.751212053531866e-07   -3.529294693902669e-06
-2.1067984187190675e-05   7.751212053531866e-07   -3.529294693902669e-06
-9.268845062481605e-06   -8.251141135514868e-07   -2.2234385377074966e-05
-9.268845062481605e-06   -8.251141135514868e-07   -2.2234385377074966e-05
-9.268845062481605e-06   -8.251141135514868e-07   -2.2234385377074966e-05
-9.268845062481605e-06   -8.251141135514868e-07   -2.2234385377074966e-05
-2.1067984187190712e-05   0.0   -4.426120294235482e-05
-2.1067984187190712e-05   0.0   -4.426120294235482e-05
-2.1067984187190712e-05   0.0   -4.426120294235482e-05
-2.1067984187190712e-05   0.0   -4.426120294235482e-05
3.3711607618805728e-06   7.751212053531866e-07   -3.0642219706907622e-06
3.3711607618805728e-06   7.751212053531866e-07   -3.0642219706907622e-06
3.3711607618805728e-06   7.751212053531866e-07   -3.0642219706907622e-06
3.3711607618805728e-06   7.751212053531866e-07   -3.0642219706907622e-06
3.7966365835913527e-06   0.0   -4.373318655434618e-05
3.7966365835913527e-06   0.0   -4.373318655434618e-05
3.7966365835913527e-06   0.0   -4.373318655434618e-05
3.7966365835913527e-06   0.0   -4.373318655434618e-05
-2.0594201467592375e-05   1.8047363948717557e-06   -4.164631639296296e-06
-2.0594201467592375e-05   1.8047363948717557e-06   -4.164631639296296e-06
-2.0594201467592375e-05   1.8047363948717557e-06   -4.164631639296296e-06
-2.0594201467592375e-05   1.8047363948717557e-06   -4.164631639296296e-06
-8.63567380179966e-06   4.4001365667381006e-07   -2.3276677439365423e-05
-8.63567380179966e-06   4.4001365667381006e-07   -2.3276677439365423e-05
-8.63567380179966e-06   4.4001365667381006e-07   -2.3276677439365423e-05
-8.63567380179966e-06   4.4001365667381006e-07   -2.3276677439365423e-05
-2.0594201467592446e-05   0.0   -4.481602839126931e-05
-2.0594201467592446e-05   0.0   -4.481602839126931e-05
-2.0594201467592446e-05   0.0   -4.481602839126931e-05
-2.0594201467592446e-05   0.0   -4.481602839126931e-05
3.7966365835913595e-06   1.8047363948717557e-06   -3.081789802373255e-06
3.7966365835913595e-06   1.8047363948717557e-06   -3.081789802373255e-06
3.7966365835913595e-06   1.8047363948717557e-06   -3.081789802373255e-06
3.7966365835913595e-06   1.8047363948717557e-06   -3.081789802373255e-06
4.367877033095719e-06   0.0   -4.278667330203674e-05
4.367877033095719e-06   0.0   -4.278667330203674e-05
4.367877033095719e-06   0.0   -4.278667330203674e-05
4.367877033095719e-06   0.0   -4.278667330203674e-05
-2.0162168465860075e-05   2.9970712224615344e-06   -3.7015068705873426e-06
-2.0162168465860075e-05   2.9970712224615344e-06   -3.7015068705873426e-06
-2.0162168465860075e-05   2.9970712224615344e-06   -3.7015068705873426e-06
-2.0162168465860075e-05   2.9970712224615344e-06   -3.7015068705873426e-06
-8.113162217248345e-06   1.6911292410270816e-06   -2.2999618762746198e-05
-8.113162217248345e-06   1.6911292410270816e-06   -2.2999618762746198e-05
-8.113162217248345e-06   1.6911292410270816e-06   -2.2999618762746198e-05
-8.113162217248345e-06   1.6911292410270816e-06   -2.2999618762746198e-05
2.8327063272826784e-06   0.0   -4.30424052877705e-05
2.8327063272826784e-06   0.0   -4.30424052877705e-05
2.8327063272826784e-06   0.0   -4.30424052877705e-05
2.8327063272826784e-06   0.0   -4.30424052877705e-05
2.969246854813829e-05   -3.4826429502911164e-06   -3.657206898524486e-07
2.969246854813829e-05   -3.4826429502911164e-06   -3.657206898524486e-07
2.969246854813829e-05   -3.4826429502911164e-06   -3.657206898524486e-07
2.969246854813829e-05   -3.4826429502911164e-06   -3.657206898524486e-07
2.9749502752518994e-05   0.0   -4.53707699799937e-05
2.9749502752518994e-05   0.0   -4.53707699799937e-05
2.9749502752518994e-05   0.0   -4.53707699799937e-05
2.9749502752518994e-05   0.0   -4.53707699799937e-05
3.3711607618805783e-06   -2.624399601417989e-06   1.6777309858777897e-07
3.3711607618805783e-06   -2.624399601417989e-06   1.6777309858777897e-07
3.3711607618805783e-06   -2.624399601417989e-06   1.6777309858777897e-07
3.3711607618805783e-06   -2.624399601417989e-06   1.6777309858777897e-07
1.6291104539900835e-05   -1.9403039101860032e-06   -2.1775923946185153e-05
1.6291104539900835e-05   -1.9403039101860032e-06   -2.1775923946185153e-05
1.6291104539900835e-05   -1.9403039101860032e-06   -2.1775923946185153e-05
1.6291104539900835e-05   -1.9403039101860032e-06   -2.1775923946185153e-05
3.3711607618805783e-06   0.0   -4.379613021914291e-05
3.3711607618805783e-06   0.0   -4.379613021914291e-05
3.3711607618805783e-06   0.0   -4.379613021914291e-05
3.3711607618805783e-06   0.0   -4.379613021914291e-05
2.9749502752518994e-05   -2.624399601417989e-06   -1.4068666622630118e-06
2.9749502752518994e-05   -2.624399601417989e-06   -1.4068666622630118e-06
2.9749502752518994e-05   -2.624399601417989e-06   -1.4068666622630118e-06
2.9749502752518994e-05   -2.624399601417989e-06   -1.4068666622630118e-06
2.962574045080911e-05   0.0   -4.472292286245493e-05
2.962574045080911e-05   0.0   -4.472292286245493e-05
2.962574045080911e-05   0.0   -4.472292286245493e-05
2.962574045080911e-05   0.0   -4.472292286245493e-05
3.7966365835913595e-06   -1.6495605135144654e-06   -6.846801089833407e-07
3.7966365835913595e-06   -1.6495605135144654e-06   -6.846801089833407e-07
3.7966365835913595e-06   -1.6495605135144654e-06   -6.846801089833407e-07
3.7966365835913595e-06   -1.6495605135144654e-06   -6.846801089833407e-07
1.6498450606344843e-05   -7.72327202760016e-07   -2.238071013335846e-05
1.6498450606344843e-05   -7.72327202760016e-07   -2.238071013335846e-05
1.6498450606344843e-05   -7.72327202760016e-07   -2.238071013335846e-05
1.6498450606344843e-05   -7.72327202760016e-07   -2.238071013335846e-05
3.796636583591356e-06   0.0   -4.373318655434621e-05
3.796636583591356e-06   0.0   -4.373318655434621e-05
3.796636583591356e-06   0.0   -4.373318655434621e-05
3.796636583591356e-06   0.0   -4.373318655434621e-05
2.962574045080911e-05   -1.6495605135144654e-06   -1.674416417092016e-06
2.962574045080911e-05   -1.6495605135144654e-06   -1.674416417092016e-06
2.962574045080911e-05   -1.6495605135144654e-06   -1.674416417092016e-06
2.962574045080911e-05   -1.6495605135144654e-06   -1.674416417092016e-06
3.020300954799486e-05   0.0   -4.299056344119808e-05
3.020300954799486e-05   0.0   -4.299056344119808e-05
3.020300954799486e-05   0.0   -4.299056344119808e-05
3.020300954799486e-05   0.0   -4.299056344119808e-05
4.367877033095727e-06   -3.398168986021191e-07   2.7188088946173917e-07
4.367877033095727e-06   -3.398168986021191e-07   2.7188088946173917e-07
4.367877033095727e-06   -3.398168986021191e-07   2.7188088946173917e-07
4.367877033095727e-06   -3.398168986021191e-07   2.7188088946173917e-07
1.6999823065793097e-05   6.188525942901443e-07   -2.135656419410255e-05
1.6999823065793097e-05   6.188525942901443e-07   -2.135656419410255e-05
1.6999823065793097e-05   6.188525942901443e-07   -2.135656419410255e-05
1.6999823065793097e-05   6.188525942901443e-07   -2.135656419410255e-05
2.969246854813829e-05   0.0   -4.513199105794517e-05
2.969246854813829e-05   0.0   -4.513199105794517e-05
2.969246854813829e-05   0.0   -4.513199105794517e-05
2.969246854813829e-05   0.0   -4.513199105794517e-05
6.705738513659771e-05   -8.831333522782279e-06   1.1844069809151546e-05
6.705738513659771e-05   -8.831333522782279e-06   1.1844069809151546e-05
6.705738513659771e-05   -8.831333522782279e-06   1.1844069809151546e-05
6.705738513659771e-05   -8.831333522782279e-06   1.1844069809151546e-05
6.298320852315636e-05   0.0   -4.9877863288272584e-05
6.298320852315636e-05   0.0   -4.9877863288272584e-05
6.298320852315636e-05   0.0   -4.9877863288272584e-05
6.298320852315636e-05   0.0   -4.9877863288272584e-05
2.9749502752518994e-05   -7.511822180464799e-06   1.0018739637735232e-05
2.9749502752518994e-05   -7.511822180464799e-06   1.0018739637735232e-05
2.9749502752518994e-05   -7.511822180464799e-06   1.0018739637735232e-05
2.9749502752518994e-05   -7.511822180464799e-06   1.0018739637735232e-05
4.6337838535647325e-05   -3.954893525272845e-06   -1.97626438605938e-05
4.6337838535647325e-05   -3.954893525272845e-06   -1.97626438605938e-05
4.6337838535647325e-05   -3.954893525272845e-06   -1.97626438605938e-05
4.6337838535647325e-05   -3.954893525272845e-06   -1.97626438605938e-05
2.9749502752518967e-05   0.0   -4.5370769979993665e-05
2.9749502752518967e-05   0.0   -4.5370769979993665e-05
2.9749502752518967e-05   0.0   -4.5370769979993665e-05
2.9749502752518967e-05   0.0   -4.5370769979993665e-05
6.298320852315614e-05   -7.511822180464772e-06   5.51164632945634e-06
6.298320852315614e-05   -7.511822180464772e-06   5.51164632945634e-06
6.298320852315614e-05   -7.511822180464772e-06   5.51164632945634e-06
6.298320852315614e-05   -7.511822180464772e-06   5.51164632945634e-06
6.110609167844341e-05   0.0   -4.884091523118253e-05
6.110609167844341e-05   0.0   -4.884091523118253e-05
6.110609167844341e-05   0.0   -4.884091523118253e-05
6.110609167844341e-05   0.0   -4.884091523118253e-05
2.962574045080911e-05   -6.863320614545985e-06   7.74432918360221e-06
2.962574045080911e-05   -6.863320614545985e-06   7.74432918360221e-06
2.962574045080911e-05   -6.863320614545985e-06   7.74432918360221e-06
2.962574045080911e-05   -6.863320614545985e-06   7.74432918360221e-06
4.5427797215481174e-05   -2.891787709324021e-06   -2.09753518339844e-05
4.5427797215481174e-05   -2.891787709324021e-06   -2.09753518339844e-05
4.5427797215481174e-05   -2.891787709324021e-06   -2.09753518339844e-05
4.5427797215481174e-05   -2.891787709324021e-06   -2.09753518339844e-05
2.962574045080911e-05   0.0   -4.472292286245493e-05
2.962574045080911e-05   0.0   -4.472292286245493e-05
2.962574045080911e-05   0.0   -4.472292286245493e-05
2.962574045080911e-05   0.0   -4.472292286245493e-05
6.110609167844319e-05   -6.863320614545972e-06   3.6263368148745973e-06
6.110609167844319e-05   -6.863320614545972e-06   3.6263368148745973e-06
6.110609167844319e-05   -6.863320614545972e-06   3.6263368148745973e-06
6.110609167844319e-05   -6.863320614545972e-06   3.6263368148745973e-06
5.83090411964305e-05   0.0   -4.6189588486466014e-05
5.83090411964305e-05   0.0   -4.6189588486466014e-05
5.83090411964305e-05   0.0   -4.6189588486466014e-05
5.83090411964305e-05   0.0   -4.6189588486466014e-05
3.0203009547994806e-05   -5.331708408779886e-06   3.852822639527973e-06
3.0203009547994806e-05   -5.331708408779886e-06   3.852822639527973e-06
3.0203009547994806e-05   -5.331708408779886e-06   3.852822639527973e-06
3.0203009547994806e-05   -5.331708408779886e-06   3.852822639527973e-06
4.3967390823619806e-05   -1.222221353342573e-06   -2.1553505053109298e-05
4.3967390823619806e-05   -1.222221353342573e-06   -2.1553505053109298e-05
4.3967390823619806e-05   -1.222221353342573e-06   -2.1553505053109298e-05
4.3967390823619806e-05   -1.222221353342573e-06   -2.1553505053109298e-05
-6.555275043412802e-05   8.36779369523502e-06   -4.304596421235238e-05
-6.555275043412802e-05   8.36779369523502e-06   -4.304596421235238e-05
-6.555275043412802e-05   8.36779369523502e-06   -4.304596421235238e-05
-6.555275043412802e-05   8.36779369523502e-06   -4.304596421235238e-05