<?xml version="1.0"?> 
<VTKFile type="UnstructuredGrid"> 
   <UnstructuredGrid> 
      <Piece NumberOfPoints="6000"  NumberOfCells="1500">  
          <Points>  
             <DataArray type="Float64" NumberOfComponents="3" format="ascii">   
-500.0   0.0   0.0
-450.0   0.0   0.0
-500.0   30.0   0.0
-500.0   0.0   16.666666666666668
-450.0   0.0   0.0
-450.0   30.0   0.0
-500.0   30.0   0.0
-450.0   30.0   16.666666666666668
-500.0   0.0   16.666666666666668
-500.0   30.0   16.666666666666668
-450.0   30.0   16.666666666666668
-500.0   30.0   0.0
-500.0   0.0   16.666666666666668
-450.0   30.0   16.666666666666668
-450.0   0.0   16.666666666666668
-450.0   0.0   0.0
-500.0   0.0   16.666666666666668
-450.0   30.0   16.666666666666668
-450.0   0.0   0.0
-500.0   30.0   0.0
-500.0   0.0   16.666666666666668
-450.0   0.0   16.666666666666668
-500.0   30.0   16.666666666666668
-500.0   0.0   33.333333333333336
-450.0   0.0   16.666666666666668
-450.0   30.0   16.666666666666668
-500.0   30.0   16.666666666666668
-450.0   30.0   33.333333333333336
-500.0   0.0   33.333333333333336
-500.0   30.0   33.333333333333336
-450.0   30.0   33.333333333333336
-500.0   30.0   16.666666666666668
-500.0   0.0   33.333333333333336
-450.0   30.0   33.333333333333336
-450.0   0.0   33.333333333333336
-450.0   0.0   16.666666666666668
-500.0   0.0   33.333333333333336
-450.0   30.0   33.333333333333336
-450.0   0.0   16.666666666666668
-500.0   30.0   16.666666666666668
-500.0   0.0   33.333333333333336
-450.0   0.0   33.333333333333336
-500.0   30.0   33.333333333333336
-500.0   0.0   50.0
-450.0   0.0   33.333333333333336
-450.0   30.0   33.333333333333336
-500.0   30.0   33.333333333333336
-450.0   30.0   50.0
-500.0   0.0   50.0
-500.0   30.0   50.0
-450.0   30.0   50.0
-500.0   30.0   33.333333333333336
-500.0   0.0   50.0
-450.0   30.0   50.0
-450.0   0.0   50.0
-450.0   0.0   33.333333333333336
-500.0   0.0   50.0
-450.0   30.0   50.0
-450.0   0.0   33.333333333333336
-500.0   30.0   33.333333333333336
-500.0   30.0   0.0
-450.0   30.0   0.0
-500.0   60.0   0.0
-500.0   30.0   16.666666666666668
-450.0   30.0   0.0
-450.0   60.0   0.0
-500.0   60.0   0.0
-450.0   60.0   16.666666666666668
-500.0   30.0   16.666666666666668
-500.0   60.0   16.666666666666668
-450.0   60.0   16.666666666666668
-500.0   60.0   0.0
-500.0   30.0   16.666666666666668
-450.0   60.0   16.666666666666668
-450.0   30.0   16.666666666666668
-450.0   30.0   0.0
-500.0   30.0   16.666666666666668
-450.0   60.0   16.666666666666668
-450.0   30.0   0.0
-500.0   60.0   0.0
-500.0   30.0   16.666666666666668
-450.0   30.0   16.666666666666668
-500.0   60.0   16.666666666666668
-500.0   30.0   33.333333333333336
-450.0   30.0   16.666666666666668
-450.0   60.0   16.666666666666668
-500.0   60.0   16.666666666666668
-450.0   60.0   33.333333333333336
-500.0   30.0   33.333333333333336
-500.0   60.0   33.333333333333336
-450.0   60.0   33.333333333333336
-500.0   60.0   16.666666666666668
-500.0   30.0   33.333333333333336
-450.0   60.0   33.333333333333336
-450.0   30.0   33.333333333333336
-450.0   30.0   16.666666666666668
-500.0   30.0   33.333333333333336
-450.0   60.0   33.333333333333336
-450.0   30.0   16.666666666666668
-500.0   60.0   16.666666666666668
-500.0   30.0   33.333333333333336
-450.0   30.0   33.333333333333336
-500.0   60.0   33.333333333333336
-500.0   30.0   50.0
-450.0   30.0   33.333333333333336
-450.0   60.0   33.333333333333336
-500.0   60.0   33.333333333333336
-450.0   60.0   50.0
-500.0   30.0   50.0
-500.0   60.0   50.0
-450.0   60.0   50.0
-500.0   60.0   33.333333333333336
-500.0   30.0   50.0
-450.0   60.0   50.0
-450.0   30.0   50.0
-450.0   30.0   33.333333333333336
-500.0   30.0   50.0
-450.0   60.0   50.0
-450.0   30.0   33.333333333333336
-500.0   60.0   33.333333333333336
-500.0   60.0   0.0
-450.0   60.0   0.0
-500.0   90.0   0.0
-500.0   60.0   16.666666666666668
-450.0   60.0   0.0
-450.0   90.0   0.0
-500.0   90.0   0.0
-450.0   90.0   16.666666666666668
-500.0   60.0   16.666666666666668
-500.0   90.0   16.666666666666668
-450.0   90.0   16.666666666666668
-500.0   90.0   0.0
-500.0   60.0   16.666666666666668
-450.0   90.0   16.666666666666668
-450.0   60.0   16.666666666666668
-450.0   60.0   0.0
-500.0   60.0   16.666666666666668
-450.0   90.0   16.666666666666668
-450.0   60.0   0.0
-500.0   90.0   0.0
-500.0   60.0   16.666666666666668
-450.0   60.0   16.666666666666668
-500.0   90.0   16.666666666666668
-500.0   60.0   33.333333333333336
-450.0   60.0   16.666666666666668
-450.0   90.0   16.666666666666668
-500.0   90.0   16.666666666666668
-450.0   90.0   33.333333333333336
-500.0   60.0   33.333333333333336
-500.0   90.0   33.333333333333336
-450.0   90.0   33.333333333333336
-500.0   90.0   16.666666666666668
-500.0   60.0   33.333333333333336
-450.0   90.0   33.333333333333336
-450.0   60.0   33.333333333333336
-450.0   60.0   16.666666666666668
-500.0   60.0   33.333333333333336
-450.0   90.0   33.333333333333336
-450.0   60.0   16.666666666666668
-500.0   90.0   16.666666666666668
-500.0   60.0   33.333333333333336
-450.0   60.0   33.333333333333336
-500.0   90.0   33.333333333333336
-500.0   60.0   50.0
-450.0   60.0   33.333333333333336
-450.0   90.0   33.333333333333336
-500.0   90.0   33.333333333333336
-450.0   90.0   50.0
-500.0   60.0   50.0
-500.0   90.0   50.0
-450.0   90.0   50.0
-500.0   90.0   33.333333333333336
-500.0   60.0   50.0
-450.0   90.0   50.0
-450.0   60.0   50.0
-450.0   60.0   33.333333333333336
-500.0   60.0   50.0
-450.0   90.0   50.0
-450.0   60.0   33.333333333333336
-500.0   90.0   33.333333333333336
-500.0   90.0   0.0
-450.0   90.0   0.0
-500.0   120.0   0.0
-500.0   90.0   16.666666666666668
-450.0   90.0   0.0
-450.0   120.0   0.0
-500.0   120.0   0.0
-450.0   120.0   16.666666666666668
-500.0   90.0   16.666666666666668
-500.0   120.0   16.666666666666668
-450.0   120.0   16.666666666666668
-500.0   120.0   0.0
-500.0   90.0   16.666666666666668
-450.0   120.0   16.666666666666668
-450.0   90.0   16.666666666666668
-450.0   90.0   0.0
-500.0   90.0   16.666666666666668
-450.0   120.0   16.666666666666668
-450.0   90.0   0.0
-500.0   120.0   0.0
-500.0   90.0   16.666666666666668
-450.0   90.0   16.666666666666668
-500.0   120.0   16.666666666666668
-500.0   90.0   33.333333333333336
-450.0   90.0   16.666666666666668
-450.0   120.0   16.666666666666668
-500.0   120.0   16.666666666666668
-450.0   120.0   33.333333333333336
-500.0   90.0   33.333333333333336
-500.0   120.0   33.333333333333336
-450.0   120.0   33.333333333333336
-500.0   120.0   16.666666666666668
-500.0   90.0   33.333333333333336
-450.0   120.0   33.333333333333336
-450.0   90.0   33.333333333333336
-450.0   90.0   16.666666666666668
-500.0   90.0   33.333333333333336
-450.0   120.0   33.333333333333336
-450.0   90.0   16.666666666666668
-500.0   120.0   16.666666666666668
-500.0   90.0   33.333333333333336
-450.0   90.0   33.333333333333336
-500.0   120.0   33.333333333333336
-500.0   90.0   50.0
-450.0   90.0   33.333333333333336
-450.0   120.0   33.333333333333336
-500.0   120.0   33.333333333333336
-450.0   120.0   50.0
-500.0   90.0   50.0
-500.0   120.0   50.0
-450.0   120.0   50.0
-500.0   120.0   33.333333333333336
-500.0   90.0   50.0
-450.0   120.0   50.0
-450.0   90.0   50.0
-450.0   90.0   33.333333333333336
-500.0   90.0   50.0
-450.0   120.0   50.0
-450.0   90.0   33.333333333333336
-500.0   120.0   33.333333333333336
-500.0   120.0   0.0
-450.0   120.0   0.0
-500.0   150.0   0.0
-500.0   120.0   16.666666666666668
-450.0   120.0   0.0
-450.0   150.0   0.0
-500.0   150.0   0.0
-450.0   150.0   16.666666666666668
-500.0   120.0   16.666666666666668
-500.0   150.0   16.666666666666668
-450.0   150.0   16.666666666666668
-500.0   150.0   0.0
-500.0   120.0   16.666666666666668
-450.0   150.0   16.666666666666668
-450.0   120.0   16.666666666666668
-450.0   120.0   0.0
-500.0   120.0   16.666666666666668
-450.0   150.0   16.666666666666668
-450.0   120.0   0.0
-500.0   150.0   0.0
-500.0   120.0   16.666666666666668
-450.0   120.0   16.666666666666668
-500.0   150.0   16.666666666666668
-500.0   120.0   33.333333333333336
-450.0   120.0   16.666666666666668
-450.0   150.0   16.666666666666668
-500.0   150.0   16.666666666666668
-450.0   150.0   33.333333333333336
-500.0   120.0   33.333333333333336
-500.0   150.0   33.333333333333336
-450.0   150.0   33.333333333333336
-500.0   150.0   16.666666666666668
-500.0   120.0   33.333333333333336
-450.0   150.0   33.333333333333336
-450.0   120.0   33.333333333333336
-450.0   120.0   16.666666666666668
-500.0   120.0   33.333333333333336
-450.0   150.0   33.333333333333336
-450.0   120.0   16.666666666666668
-500.0   150.0   16.666666666666668
-500.0   120.0   33.333333333333336
-450.0   120.0   33.333333333333336
-500.0   150.0   33.333333333333336
-500.0   120.0   50.0
-450.0   120.0   33.333333333333336
-450.0   150.0   33.333333333333336
-500.0   150.0   33.333333333333336
-450.0   150.0   50.0
-500.0   120.0   50.0
-500.0   150.0   50.0
-450.0   150.0   50.0
-500.0   150.0   33.333333333333336
-500.0   120.0   50.0
-450.0   150.0   50.0
-450.0   120.0   50.0
-450.0   120.0   33.333333333333336
-500.0   120.0   50.0
-450.0   150.0   50.0
-450.0   120.0   33.333333333333336
-500.0   150.0   33.333333333333336
-450.0   0.0   0.0
-400.0   0.0   0.0
-450.0   30.0   0.0
-450.0   0.0   16.666666666666668
-400.0   0.0   0.0
-400.0   30.0   0.0
-450.0   30.0   0.0
-400.0   30.0   16.666666666666668
-450.0   0.0   16.666666666666668
-450.0   30.0   16.666666666666668
-400.0   30.0   16.666666666666668
-450.0   30.0   0.0
-450.0   0.0   16.666666666666668
-400.0   30.0   16.666666666666668
-400.0   0.0   16.666666666666668
-400.0   0.0   0.0
-450.0   0.0   16.666666666666668
-400.0   30.0   16.666666666666668
-400.0   0.0   0.0
-450.0   30.0   0.0
-450.0   0.0   16.666666666666668
-400.0   0.0   16.666666666666668
-450.0   30.0   16.666666666666668
[...]
          <PointData>  
             <DataArray type="Float64" NumberOfComponents="3" Name="Strains" format="ascii">   
-3.804594846542328e-05   0.0   -2.512614045984744e-05
-3.804594846542328e-05   0.0   -2.512614045984744e-05
-3.804594846542328e-05   0.0   -2.512614045984744e-05
-3.804594846542328e-05   0.0   -2.512614045984744e-05
-2.4193891593193993e-05   4.1939932969488415e-06   4.770169720372965e-07
-2.4193891593193993e-05   4.1939932969488415e-06   4.770169720372965e-07
-2.4193891593193993e-05   4.1939932969488415e-06   4.770169720372965e-07
-2.4193891593193993e-05   4.1939932969488415e-06   4.770169720372965e-07
-2.370477280360002e-05   0.0   -2.373473355581596e-05
-2.370477280360002e-05   0.0   -2.373473355581596e-05
-2.370477280360002e-05   0.0   -2.373473355581596e-05
-2.370477280360002e-05   0.0   -2.373473355581596e-05
-3.9803725816603534e-05   5.042914426638858e-06   7.110614320669805e-08
-3.9803725816603534e-05   5.042914426638858e-06   7.110614320669805e-08
-3.9803725816603534e-05   5.042914426638858e-06   7.110614320669805e-08
-3.9803725816603534e-05   5.042914426638858e-06   7.110614320669805e-08
-3.087536063451159e-05   1.1595057533595618e-06   -1.2479457289645617e-05
-3.087536063451159e-05   1.1595057533595618e-06   -1.2479457289645617e-05
-3.087536063451159e-05   1.1595057533595618e-06   -1.2479457289645617e-05
-3.087536063451159e-05   1.1595057533595618e-06   -1.2479457289645617e-05
-3.98037258166036e-05   0.0   -2.6760482211799284e-05
-3.98037258166036e-05   0.0   -2.6760482211799284e-05
-3.98037258166036e-05   0.0   -2.6760482211799284e-05
-3.98037258166036e-05   0.0   -2.6760482211799284e-05
-2.370477280360002e-05   5.042914426638871e-06   3.096854799190014e-06
-2.370477280360002e-05   5.042914426638871e-06   3.096854799190014e-06
-2.370477280360002e-05   5.042914426638871e-06   3.096854799190014e-06
-2.370477280360002e-05   5.042914426638871e-06   3.096854799190014e-06
-2.376011706158811e-05   0.0   -2.4312579089179102e-05
-2.376011706158811e-05   0.0   -2.4312579089179102e-05
-2.376011706158811e-05   0.0   -2.4312579089179102e-05
-2.376011706158811e-05   0.0   -2.4312579089179102e-05
-4.103291281029419e-05   5.405421547778604e-06   1.2321608966639843e-06
-4.103291281029419e-05   5.405421547778604e-06   1.2321608966639843e-06
-4.103291281029419e-05   5.405421547778604e-06   1.2321608966639843e-06
-4.103291281029419e-05   5.405421547778604e-06   1.2321608966639843e-06
-3.17819214390958e-05   2.0399192688501472e-06   -1.2166856687976247e-05
-3.17819214390958e-05   2.0399192688501472e-06   -1.2166856687976247e-05
-3.17819214390958e-05   2.0399192688501472e-06   -1.2166856687976247e-05
-3.17819214390958e-05   2.0399192688501472e-06   -1.2166856687976247e-05
-4.103291281029426e-05   0.0   -2.755583201784627e-05
-4.103291281029426e-05   0.0   -2.755583201784627e-05
-4.103291281029426e-05   0.0   -2.755583201784627e-05
-4.103291281029426e-05   0.0   -2.755583201784627e-05
-2.3760117061588067e-05   5.405421547778604e-06   4.475413825331147e-06
-2.3760117061588067e-05   5.405421547778604e-06   4.475413825331147e-06
-2.3760117061588067e-05   5.405421547778604e-06   4.475413825331147e-06
-2.3760117061588067e-05   5.405421547778604e-06   4.475413825331147e-06
-2.3734656170004626e-05   0.0   -2.4462876940900183e-05
-2.3734656170004626e-05   0.0   -2.4462876940900183e-05
-2.3734656170004626e-05   0.0   -2.4462876940900183e-05
-2.3734656170004626e-05   0.0   -2.4462876940900183e-05
-4.369234006006294e-05   6.166310537511072e-06   5.100143220023801e-06
-4.369234006006294e-05   6.166310537511072e-06   5.100143220023801e-06
-4.369234006006294e-05   6.166310537511072e-06   5.100143220023801e-06
-4.369234006006294e-05   6.166310537511072e-06   5.100143220023801e-06
-3.238378449014939e-05   2.577462564121737e-06   -1.1594140612465171e-05
-3.238378449014939e-05   2.577462564121737e-06   -1.1594140612465171e-05
-3.238378449014939e-05   2.577462564121737e-06   -1.1594140612465171e-05
-3.238378449014939e-05   2.577462564121737e-06   -1.1594140612465171e-05
-2.4193891593194037e-05   0.0   -2.260974448167813e-05
-2.4193891593194037e-05   0.0   -2.260974448167813e-05
-2.4193891593194037e-05   0.0   -2.260974448167813e-05
-2.4193891593194037e-05   0.0   -2.260974448167813e-05
-1.1031336526617321e-05   1.5341847438443706e-06   2.4835814225633167e-07
-1.1031336526617321e-05   1.5341847438443706e-06   2.4835814225633167e-07
-1.1031336526617321e-05   1.5341847438443706e-06   2.4835814225633167e-07
-1.1031336526617321e-05   1.5341847438443706e-06   2.4835814225633167e-07
-1.0598567858864475e-05   0.0   -2.242010629487677e-05
-1.0598567858864475e-05   0.0   -2.242010629487677e-05
-1.0598567858864475e-05   0.0   -2.242010629487677e-05
-1.0598567858864475e-05   0.0   -2.242010629487677e-05
-2.370477280360002e-05   2.191045434898587e-06   -1.8910586479234243e-06
-2.370477280360002e-05   2.191045434898587e-06   -1.8910586479234243e-06
-2.370477280360002e-05   2.191045434898587e-06   -1.8910586479234243e-06
-2.370477280360002e-05   2.191045434898587e-06   -1.8910586479234243e-06
-1.7396229726029233e-05   1.5803182233443448e-07   -1.1185488943002824e-05
-1.7396229726029233e-05   1.5803182233443448e-07   -1.1185488943002824e-05
-1.7396229726029233e-05   1.5803182233443448e-07   -1.1185488943002824e-05
-1.7396229726029233e-05   1.5803182233443448e-07   -1.1185488943002824e-05
-2.37047728036e-05   0.0   -2.373473355581594e-05
-2.37047728036e-05   0.0   -2.373473355581594e-05
-2.37047728036e-05   0.0   -2.373473355581594e-05
-2.37047728036e-05   0.0   -2.373473355581594e-05
-1.0598567858864475e-05   2.191045434898587e-06   -5.764313869842661e-07
-1.0598567858864475e-05   2.191045434898587e-06   -5.764313869842661e-07
-1.0598567858864475e-05   2.191045434898587e-06   -5.764313869842661e-07
-1.0598567858864475e-05   2.191045434898587e-06   -5.764313869842661e-07
-1.0350807716188883e-05   0.0   -2.2699159367695876e-05
-1.0350807716188883e-05   0.0   -2.2699159367695876e-05
-1.0350807716188883e-05   0.0   -2.2699159367695876e-05
-1.0350807716188883e-05   0.0   -2.2699159367695876e-05
-2.376011706158811e-05   2.6890328691386454e-06   -1.9637301801804266e-06
-2.376011706158811e-05   2.6890328691386454e-06   -1.9637301801804266e-06
-2.376011706158811e-05   2.6890328691386454e-06   -1.9637301801804266e-06
-2.376011706158811e-05   2.6890328691386454e-06   -1.9637301801804266e-06
-1.7027790259894424e-05   8.629784901000377e-07   -1.2088642222246639e-05
-1.7027790259894424e-05   8.629784901000377e-07   -1.2088642222246639e-05
-1.7027790259894424e-05   8.629784901000377e-07   -1.2088642222246639e-05
-1.7027790259894424e-05   8.629784901000377e-07   -1.2088642222246639e-05
-2.376011706158811e-05   0.0   -2.4312579089179102e-05
-2.376011706158811e-05   0.0   -2.4312579089179102e-05
-2.376011706158811e-05   0.0   -2.4312579089179102e-05
-2.376011706158811e-05   0.0   -2.4312579089179102e-05
-1.0350807716188902e-05   2.6890328691386454e-06   -3.503104586972414e-07
-1.0350807716188902e-05   2.6890328691386454e-06   -3.503104586972414e-07
-1.0350807716188902e-05   2.6890328691386454e-06   -3.503104586972414e-07
-1.0350807716188902e-05   2.6890328691386454e-06   -3.503104586972414e-07
-1.0123301742569824e-05   0.0   -2.2583837067843504e-05
-1.0123301742569824e-05   0.0   -2.2583837067843504e-05
-1.0123301742569824e-05   0.0   -2.2583837067843504e-05
-1.0123301742569824e-05   0.0   -2.2583837067843504e-05
-2.3734656170004606e-05   3.131733121761094e-06   -1.7772862285088376e-06
-2.3734656170004606e-05   3.131733121761094e-06   -1.7772862285088376e-06
-2.3734656170004606e-05   3.131733121761094e-06   -1.7772862285088376e-06
-2.3734656170004606e-05   3.131733121761094e-06   -1.7772862285088376e-06
-1.694170940207896e-05   1.4406183511129853e-06   -1.2084195312662727e-05
-1.694170940207896e-05   1.4406183511129853e-06   -1.2084195312662727e-05
-1.694170940207896e-05   1.4406183511129853e-06   -1.2084195312662727e-05
-1.694170940207896e-05   1.4406183511129853e-06   -1.2084195312662727e-05
-1.103133652661734e-05   0.0   -2.1689233635371512e-05
-1.103133652661734e-05   0.0   -2.1689233635371512e-05
-1.103133652661734e-05   0.0   -2.1689233635371512e-05
-1.103133652661734e-05   0.0   -2.1689233635371512e-05
1.3949707477907024e-06   -1.9956753938014569e-07   -1.0984620349861707e-06
1.3949707477907024e-06   -1.9956753938014569e-07   -1.0984620349861707e-06
1.3949707477907024e-06   -1.9956753938014569e-07   -1.0984620349861707e-06
1.3949707477907024e-06   -1.9956753938014569e-07   -1.0984620349861707e-06
1.6765405963477878e-06   0.0   -2.218624733319363e-05
1.6765405963477878e-06   0.0   -2.218624733319363e-05
1.6765405963477878e-06   0.0   -2.218624733319363e-05
1.6765405963477878e-06   0.0   -2.218624733319363e-05
-1.0598567858864475e-05   3.897649361384983e-07   -1.9615922028563303e-06
-1.0598567858864475e-05   3.897649361384983e-07   -1.9615922028563303e-06
-1.0598567858864475e-05   3.897649361384983e-07   -1.9615922028563303e-06
-1.0598567858864475e-05   3.897649361384983e-07   -1.9615922028563303e-06
-4.677397965134765e-06   -4.141780815184983e-07   -1.1347842881811637e-05
-4.677397965134765e-06   -4.141780815184983e-07   -1.1347842881811637e-05
-4.677397965134765e-06   -4.141780815184983e-07   -1.1347842881811637e-05
-4.677397965134765e-06   -4.141780815184983e-07   -1.1347842881811637e-05
-1.0598567858864493e-05   0.0   -2.242010629487681e-05
-1.0598567858864493e-05   0.0   -2.242010629487681e-05
-1.0598567858864493e-05   0.0   -2.242010629487681e-05
-1.0598567858864493e-05   0.0   -2.242010629487681e-05
1.6765405963477907e-06   3.897649361384983e-07   -1.7277332411732324e-06
1.6765405963477907e-06   3.897649361384983e-07   -1.7277332411732324e-06
1.6765405963477907e-06   3.897649361384983e-07   -1.7277332411732324e-06
1.6765405963477907e-06   3.897649361384983e-07   -1.7277332411732324e-06
1.9002943516377711e-06   0.0   -2.2153622868981523e-05
1.9002943516377711e-06   0.0   -2.2153622868981523e-05
1.9002943516377711e-06   0.0   -2.2153622868981523e-05
1.9002943516377711e-06   0.0   -2.2153622868981523e-05
-1.0350807716188864e-05   9.092274978572573e-07   -2.2806559213181232e-06
-1.0350807716188864e-05   9.092274978572573e-07   -2.2806559213181232e-06
-1.0350807716188864e-05   9.092274978572573e-07   -2.2806559213181232e-06
-1.0350807716188864e-05   9.092274978572573e-07   -2.2806559213181232e-06
-4.349136753613352e-06   2.220695215793729e-07   -1.1871146073177267e-05
-4.349136753613352e-06   2.220695215793729e-07   -1.1871146073177267e-05
-4.349136753613352e-06   2.220695215793729e-07   -1.1871146073177267e-05
-4.349136753613352e-06   2.220695215793729e-07   -1.1871146073177267e-05
-1.0350807716188902e-05   0.0   -2.2699159367695917e-05
-1.0350807716188902e-05   0.0   -2.2699159367695917e-05
-1.0350807716188902e-05   0.0   -2.2699159367695917e-05
-1.0350807716188902e-05   0.0   -2.2699159367695917e-05
1.9002943516377743e-06   9.092274978572573e-07   -1.735119422603772e-06
1.9002943516377743e-06   9.092274978572573e-07   -1.735119422603772e-06
1.9002943516377743e-06   9.092274978572573e-07   -1.735119422603772e-06
1.9002943516377743e-06   9.092274978572573e-07   -1.735119422603772e-06
2.197536148057841e-06   0.0   -2.1677709060049143e-05
2.197536148057841e-06   0.0   -2.1677709060049143e-05
2.197536148057841e-06   0.0   -2.1677709060049143e-05
2.197536148057841e-06   0.0   -2.1677709060049143e-05
-1.0123301742569815e-05   1.5102133463238947e-06   -2.0491072501307262e-06
-1.0123301742569815e-05   1.5102133463238947e-06   -2.0491072501307262e-06
-1.0123301742569815e-05   1.5102133463238947e-06   -2.0491072501307262e-06
-1.0123301742569815e-05   1.5102133463238947e-06   -2.0491072501307262e-06
-4.076635784065521e-06   8.512085897056133e-07   -1.1731480993666898e-05
-4.076635784065521e-06   8.512085897056133e-07   -1.1731480993666898e-05
-4.076635784065521e-06   8.512085897056133e-07   -1.1731480993666898e-05
-4.076635784065521e-06   8.512085897056133e-07   -1.1731480993666898e-05
1.394970747790705e-06   0.0   -2.1808974158999597e-05
1.394970747790705e-06   0.0   -2.1808974158999597e-05
1.394970747790705e-06   0.0   -2.1808974158999597e-05
1.394970747790705e-06   0.0   -2.1808974158999597e-05
1.489332948192034e-05   -1.7468960589475885e-06   -3.598472374854071e-07
1.489332948192034e-05   -1.7468960589475885e-06   -3.598472374854071e-07
1.489332948192034e-05   -1.7468960589475885e-06   -3.598472374854071e-07
1.489332948192034e-05   -1.7468960589475885e-06   -3.598472374854071e-07
1.4934040206122917e-05   0.0   -2.297445824724919e-05
1.4934040206122917e-05   0.0   -2.297445824724919e-05
1.4934040206122917e-05   0.0   -2.297445824724919e-05
1.4934040206122917e-05   0.0   -2.297445824724919e-05
1.6765405963477935e-06   -1.313684856759132e-06   -9.041465023516981e-08
1.6765405963477935e-06   -1.313684856759132e-06   -9.041465023516981e-08
1.6765405963477935e-06   -1.313684856759132e-06   -9.041465023516981e-08
1.6765405963477935e-06   -1.313684856759132e-06   -9.041465023516981e-08
8.16450547695681e-06   -9.712367402079915e-07   -1.1109158321180874e-05
8.16450547695681e-06   -9.712367402079915e-07   -1.1109158321180874e-05
8.16450547695681e-06   -9.712367402079915e-07   -1.1109158321180874e-05
8.16450547695681e-06   -9.712367402079915e-07   -1.1109158321180874e-05
1.6765405963477935e-06   0.0   -2.2186247333193708e-05
1.6765405963477935e-06   0.0   -2.2186247333193708e-05
1.6765405963477935e-06   0.0   -2.2186247333193708e-05
1.6765405963477935e-06   0.0   -2.2186247333193708e-05
1.4934040206122917e-05   -1.313684856759132e-06   -8.786255642906495e-07
1.4934040206122917e-05   -1.313684856759132e-06   -8.786255642906495e-07
1.4934040206122917e-05   -1.313684856759132e-06   -8.786255642906495e-07
1.4934040206122917e-05   -1.313684856759132e-06   -8.786255642906495e-07
1.4882341193302038e-05   0.0   -2.2646493588349846e-05
1.4882341193302038e-05   0.0   -2.2646493588349846e-05
1.4882341193302038e-05   0.0   -2.2646493588349846e-05
1.4882341193302038e-05   0.0   -2.2646493588349846e-05
1.9002943516377743e-06   -8.214511989471394e-07   -5.168781328744581e-07
1.9002943516377743e-06   -8.214511989471394e-07   -5.168781328744581e-07
1.9002943516377743e-06   -8.214511989471394e-07   -5.168781328744581e-07
1.9002943516377743e-06   -8.214511989471394e-07   -5.168781328744581e-07
8.279440894824916e-06   -3.8353854596344934e-07   -1.1411536629976566e-05
8.279440894824916e-06   -3.8353854596344934e-07   -1.1411536629976566e-05
8.279440894824916e-06   -3.8353854596344934e-07   -1.1411536629976566e-05
8.279440894824916e-06   -3.8353854596344934e-07   -1.1411536629976566e-05
1.9002943516377728e-06   0.0   -2.2153622868981544e-05
1.9002943516377728e-06   0.0   -2.2153622868981544e-05
1.9002943516377728e-06   0.0   -2.2153622868981544e-05
1.9002943516377728e-06   0.0   -2.2153622868981544e-05
1.4882341193302038e-05   -8.214511989471394e-07   -1.0097488522427414e-06
1.4882341193302038e-05   -8.214511989471394e-07   -1.0097488522427414e-06
1.4882341193302038e-05   -8.214511989471394e-07   -1.0097488522427414e-06
1.4882341193302038e-05   -8.214511989471394e-07   -1.0097488522427414e-06
1.5182348856751204e-05   0.0   -2.1774156812795803e-05
1.5182348856751204e-05   0.0   -2.1774156812795803e-05
1.5182348856751204e-05   0.0   -2.1774156812795803e-05
1.5182348856751204e-05   0.0   -2.1774156812795803e-05
2.1975361480578447e-06   -1.6074625457770302e-07   -3.63545455602521e-08
2.1975361480578447e-06   -1.6074625457770302e-07   -3.63545455602521e-08
2.1975361480578447e-06   -1.6074625457770302e-07   -3.63545455602521e-08
2.1975361480578447e-06   -1.6074625457770302e-07   -3.63545455602521e-08
8.541321604194483e-06   3.1622171348813315e-07   -1.0895511086627475e-05
8.541321604194483e-06   3.1622171348813315e-07   -1.0895511086627475e-05
8.541321604194483e-06   3.1622171348813315e-07   -1.0895511086627475e-05
8.541321604194483e-06   3.1622171348813315e-07   -1.0895511086627475e-05
1.489332948192034e-05   0.0   -2.2857111794368147e-05
1.489332948192034e-05   0.0   -2.2857111794368147e-05
1.489332948192034e-05   0.0   -2.2857111794368147e-05
1.489332948192034e-05   0.0   -2.2857111794368147e-05
3.369904635580637e-05   -4.437945085597169e-06   5.822982610750449e-06
3.369904635580637e-05   -4.437945085597169e-06   5.822982610750449e-06
3.369904635580637e-05   -4.437945085597169e-06   5.822982610750449e-06
3.369904635580637e-05   -4.437945085597169e-06   5.822982610750449e-06
3.166732381246516e-05   0.0   -2.5235540413053992e-05
3.166732381246516e-05   0.0   -2.5235540413053992e-05
3.166732381246516e-05   0.0   -2.5235540413053992e-05
3.166732381246516e-05   0.0   -2.5235540413053992e-05
1.4934040206122917e-05   -3.7684702763413354e-06   4.914347763321199e-06
1.4934040206122917e-05   -3.7684702763413354e-06   4.914347763321199e-06
1.4934040206122917e-05   -3.7684702763413354e-06   4.914347763321199e-06
1.4934040206122917e-05   -3.7684702763413354e-06   4.914347763321199e-06
2.3280326647192748e-05   -1.9820238489048717e-06   -1.0067997494923712e-05
2.3280326647192748e-05   -1.9820238489048717e-06   -1.0067997494923712e-05
2.3280326647192748e-05   -1.9820238489048717e-06   -1.0067997494923712e-05
2.3280326647192748e-05   -1.9820238489048717e-06   -1.0067997494923712e-05
1.4934040206122905e-05   0.0   -2.2974458247249168e-05
1.4934040206122905e-05   0.0   -2.2974458247249168e-05
1.4934040206122905e-05   0.0   -2.2974458247249168e-05
1.4934040206122905e-05   0.0   -2.2974458247249168e-05
3.166732381246505e-05   -3.7684702763413286e-06   2.6532655975163887e-06
3.166732381246505e-05   -3.7684702763413286e-06   2.6532655975163887e-06
3.166732381246505e-05   -3.7684702763413286e-06   2.6532655975163887e-06
3.166732381246505e-05   -3.7684702763413286e-06   2.6532655975163887e-06
3.073595362255006e-05   0.0   -2.471101412605851e-05
3.073595362255006e-05   0.0   -2.471101412605851e-05
3.073595362255006e-05   0.0   -2.471101412605851e-05
3.073595362255006e-05   0.0   -2.471101412605851e-05
1.4882341193302038e-05   -3.440867562847775e-06   3.776193793730184e-06
1.4882341193302038e-05   -3.440867562847775e-06   3.776193793730184e-06
1.4882341193302038e-05   -3.440867562847775e-06   3.776193793730184e-06
1.4882341193302038e-05   -3.440867562847775e-06   3.776193793730184e-06
2.2834996914336477e-05   -1.447129899007771e-06   -1.0674475006297879e-05
2.2834996914336477e-05   -1.447129899007771e-06   -1.0674475006297879e-05
2.2834996914336477e-05   -1.447129899007771e-06   -1.0674475006297879e-05
2.2834996914336477e-05   -1.447129899007771e-06   -1.0674475006297879e-05
1.4882341193302038e-05   0.0   -2.2646493588349846e-05
1.4882341193302038e-05   0.0   -2.2646493588349846e-05
1.4882341193302038e-05   0.0   -2.2646493588349846e-05
1.4882341193302038e-05   0.0   -2.2646493588349846e-05
3.0735953622549955e-05   -3.440867562847755e-06   1.711673256021521e-06
3.0735953622549955e-05   -3.440867562847755e-06   1.711673256021521e-06
3.0735953622549955e-05   -3.440867562847755e-06   1.711673256021521e-06
3.0735953622549955e-05   -3.440867562847755e-06   1.711673256021521e-06
2.934083541868237e-05   0.0   -2.3373452197187093e-05
2.934083541868237e-05   0.0   -2.3373452197187093e-05
2.934083541868237e-05   0.0   -2.3373452197187093e-05
2.934083541868237e-05   0.0   -2.3373452197187093e-05
1.5182348856751176e-05   -2.6654923073188083e-06   1.8233207904227993e-06
1.5182348856751176e-05   -2.6654923073188083e-06   1.8233207904227993e-06
1.5182348856751176e-05   -2.6654923073188083e-06   1.8233207904227993e-06
1.5182348856751176e-05   -2.6654923073188083e-06   1.8233207904227993e-06
2.2111588305992205e-05   -6.05798840697708e-07   -1.0961227704951519e-05
2.2111588305992205e-05   -6.05798840697708e-07   -1.0961227704951519e-05
2.2111588305992205e-05   -6.05798840697708e-07   -1.0961227704951519e-05
2.2111588305992205e-05   -6.05798840697708e-07   -1.0961227704951519e-05
-3.289439692176086e-05   4.1939932969488415e-06   -2.1687064399753326e-05
-3.289439692176086e-05   4.1939932969488415e-06   -2.1687064399753326e-05